 Gaussian 09, Revision D.01,
 Gaussian 09:  EM64L-G09RevD.01 24-Apr-2013

 -------------------------------------------------------------------
 #P PBE1PBE/6-311+G(d,p) opt optcyc=999 freq EmpiricalDispersion=GD3
 -------------------------------------------------------------------

 -------
 disacch
 -------
 Symbolic Z-matrix:
 Charge =  1 Multiplicity = 1

 SCF Done:  E(RPBE1PBE) =  -880.914831233     A.U. after   18 cycles
 SCF Done:  E(RPBE1PBE) =  -880.919152513     A.U. after   18 cycles
 SCF Done:  E(RPBE1PBE) =  -880.919675749     A.U. after   13 cycles
 SCF Done:  E(RPBE1PBE) =  -880.919982082     A.U. after   12 cycles
 SCF Done:  E(RPBE1PBE) =  -880.919947207     A.U. after   19 cycles
 SCF Done:  E(RPBE1PBE) =  -880.920384729     A.U. after   12 cycles
 SCF Done:  E(RPBE1PBE) =  -880.920466420     A.U. after   11 cycles
 SCF Done:  E(RPBE1PBE) =  -880.920467870     A.U. after   12 cycles
 SCF Done:  E(RPBE1PBE) =  -880.920483193     A.U. after   13 cycles
 SCF Done:  E(RPBE1PBE) =  -880.920487790     A.U. after   10 cycles
 SCF Done:  E(RPBE1PBE) =  -880.920492487     A.U. after   16 cycles
 SCF Done:  E(RPBE1PBE) =  -880.920496553     A.U. after   15 cycles
 SCF Done:  E(RPBE1PBE) =  -880.920502432     A.U. after   10 cycles
 SCF Done:  E(RPBE1PBE) =  -880.920513038     A.U. after   12 cycles
 SCF Done:  E(RPBE1PBE) =  -880.920519417     A.U. after   16 cycles
 SCF Done:  E(RPBE1PBE) =  -880.920520416     A.U. after   11 cycles
 SCF Done:  E(RPBE1PBE) =  -880.920521116     A.U. after   14 cycles
 SCF Done:  E(RPBE1PBE) =  -880.920521405     A.U. after   12 cycles
 Optimization completed.
    -- Stationary point found.
 Normal termination of Gaussian 09 at Tue Jan 10 03:55:50 2017.

 ----------------------------------------------------------------------
 #P Geom=AllCheck Guess=TCheck SCRF=Check GenChk RPBE1PBE/6-311+G(d,p)
 Freq
 ----------------------------------------------------------------------

 Structure from the checkpoint file:  "Ac-4_cGalMe.chk"
 -------
 disacch
 -------
 Charge =  1 Multiplicity = 1

                         Standard orientation:
 ---------------------------------------------------------------------
 Center     Atomic      Atomic             Coordinates (Angstroms)
 Number     Number       Type             X           Y           Z
 ---------------------------------------------------------------------
      1          6           0       -0.790677   -2.087426    0.012240
      2          6           0       -0.314185   -1.266689   -1.185258
      3          6           0        0.704702   -0.188124   -0.841047
      4          6           0        0.209680    0.723528    0.292174
      5          6           0       -1.276722    1.074605    0.064902
      6          6           0       -2.057342   -0.101784   -0.505926
      7          8           0       -1.531204   -0.656570   -1.622303
      8          8           0        0.384625    0.064534    1.521811
      9          8           0        1.882284   -0.902008   -0.515908
     10          8           0       -1.899770   -1.246026    0.529425
     11          1           0       -0.063337   -2.173347    0.815898
     12          1           0       -1.221419   -3.042414   -0.287831
     13          1           0        0.054510   -1.903491   -1.988232
     14          1           0        0.858796    0.429445   -1.731578
     15          1           0        0.792682    1.648245    0.264017
     16          1           0       -1.721857    1.349296    1.033167
     17          1           0       -3.122499    0.093997   -0.628901
     18          8           0       -1.459076    2.067831   -0.898188
     19          6           0       -3.116689   -1.952837    0.909819
     20          1           0       -3.770642   -1.215497    1.371344
     21          1           0       -3.568162   -2.401308    0.022739
     22          1           0       -2.825001   -2.705452    1.639820
     23          6           0       -1.331865    3.394196   -0.405469
     24          1           0       -2.084351    3.597859    0.366051
     25          1           0       -0.331044    3.581469    0.000082
     26          1           0       -1.497503    4.054970   -1.254820
     27          6           0        0.712175    0.936292    2.592018
     28          1           0        1.650316    1.464901    2.388024
     29          1           0       -0.082307    1.671234    2.775589
     30          1           0        0.830608    0.317177    3.480845
     31          6           0        3.015490   -0.158871   -0.358697
     32          8           0        3.010619    1.033316   -0.485723
     33          6           0        4.181252   -1.025255   -0.022397
     34          1           0        4.320185   -1.782765   -0.797255
     35          1           0        3.991595   -1.547759    0.918639
     36          1           0        5.074681   -0.410989    0.065334
 ---------------------------------------------------------------------

 SCF Done:  E(RPBE1PBE) =  -880.920521405     A.U. after    2 cycles

 The electronic state is 1-A.
 Alpha  occ. eigenvalues --  -19.49635 -19.40862 -19.37652 -19.35328 -19.34791
 Alpha  occ. eigenvalues --  -19.30924 -10.51905 -10.47039 -10.46344 -10.46210
 Alpha  occ. eigenvalues --  -10.45453 -10.43513 -10.42941 -10.41875 -10.38342
 Alpha  occ. eigenvalues --  -10.38295 -10.33208  -1.35761  -1.27353  -1.26728
 Alpha  occ. eigenvalues --   -1.22149  -1.20859  -1.17578  -1.00598  -0.97923
 Alpha  occ. eigenvalues --   -0.94896  -0.89754  -0.87383  -0.86195  -0.83533
 Alpha  occ. eigenvalues --   -0.81812  -0.81089  -0.76599  -0.74791  -0.72728
 Alpha  occ. eigenvalues --   -0.70670  -0.68477  -0.66953  -0.66793  -0.65627
 Alpha  occ. eigenvalues --   -0.65062  -0.63664  -0.62421  -0.62147  -0.61451
 Alpha  occ. eigenvalues --   -0.60317  -0.60116  -0.59464  -0.58626  -0.57807
 Alpha  occ. eigenvalues --   -0.56159  -0.55429  -0.55194  -0.53426  -0.52584
 Alpha  occ. eigenvalues --   -0.52284  -0.51883  -0.50846  -0.49631  -0.48377
 Alpha  occ. eigenvalues --   -0.47406  -0.46459  -0.44196  -0.43446  -0.41047
 Alpha  occ. eigenvalues --   -0.39620
 Alpha virt. eigenvalues --   -0.14133  -0.12126  -0.10916  -0.10382  -0.10094
 Alpha virt. eigenvalues --   -0.09476  -0.09012  -0.07579  -0.07340  -0.06893
 Alpha virt. eigenvalues --   -0.06629  -0.05590  -0.05111  -0.04597  -0.04233

 Mulliken charges:
               1
     1  C   -0.272107
     2  C   -0.657472
     3  C   -0.669666
     4  C   -0.014610
     5  C   -0.668273
     6  C   -0.482675
     7  O    0.113323
     8  O    0.062952
     9  O    0.200154
    10  O    0.200633
    11  H    0.305813
    12  H    0.257699
    13  H    0.274881
    14  H    0.285662
    15  H    0.252162
    16  H    0.215953
    17  H    0.280890
    18  O    0.038456
    19  C   -0.253858
    20  H    0.229068
    21  H    0.238061
    22  H    0.226767
    23  C   -0.268011
    24  H    0.173723
    25  H    0.180490
    26  H    0.202505
    27  C   -0.213309
    28  H    0.193454
    29  H    0.167007
    30  H    0.191062
    31  C    0.370717
    32  O   -0.187416
    33  C   -0.608015
    34  H    0.208133
    35  H    0.205697
    36  H    0.220147
 Sum of Mulliken charges =   1.00000

 Dipole moment (field-independent basis, Debye):
    X=             -5.8110    Y=             -4.4573    Z=              2.9706  Tot=              7.9031
 Quadrupole moment (field-independent basis, Debye-Ang):
   XX=            -64.4838   YY=            -73.1378   ZZ=            -91.8633
   XY=              1.9588   XZ=             -5.1311   YZ=              2.3912

  Exact polarizability: 150.920  -1.232 143.236   0.134  -1.942 121.872
 Approx polarizability: 183.880  -1.157 196.113   0.463  -5.184 175.554

                      1                      2                      3
                      A                      A                      A
 Frequencies --     37.2255                45.1305                64.1549
 Red. masses --      4.8401                 1.2602                 3.4500
 Frc consts  --      0.0040                 0.0015                 0.0084
 IR Inten    --      0.6291                 2.2606                 1.7483

                      4                      5                      6
                      A                      A                      A
 Frequencies --     66.2510                82.8163                85.4819
 Red. masses --      2.8599                 2.6043                 2.2247
 Frc consts  --      0.0074                 0.0105                 0.0096
 IR Inten    --      1.6956                 2.3838                 0.7144

                      7                      8                      9
                      A                      A                      A
 Frequencies --    100.1369               104.8380               143.6599
 Red. masses --      3.9730                 2.7956                 1.9469
 Frc consts  --      0.0235                 0.0181                 0.0237
 IR Inten    --      0.3790                 4.6828                 1.1655

                     10                     11                     12
                      A                      A                      A
 Frequencies --    171.2518               184.1601               211.7176
 Red. masses --      2.0804                 1.2770                 2.0437
 Frc consts  --      0.0359                 0.0255                 0.0540
 IR Inten    --      1.8830                 0.5038                 4.3505

                     13                     14                     15
                      A                      A                      A
 Frequencies --    216.2977               230.5802               265.6751
 Red. masses --      2.2843                 2.1187                 3.7472
 Frc consts  --      0.0630                 0.0664                 0.1558
 IR Inten    --     13.4873                 0.8259                 2.4328

                     16                     17                     18
                      A                      A                      A
 Frequencies --    285.4246               291.9376               314.6251
 Red. masses --      3.3378                 3.8764                 3.7554
 Frc consts  --      0.1602                 0.1947                 0.2190
 IR Inten    --      6.7102                 7.9040                 1.5937

                     19                     20                     21
                      A                      A                      A
 Frequencies --    338.9796               371.3016               397.1391
 Red. masses --      3.2605                 5.2549                 3.5306
 Frc consts  --      0.2207                 0.4268                 0.3281
 IR Inten    --      0.7778                 8.7827                 1.2390

                     22                     23                     24
                      A                      A                      A
 Frequencies --    435.6233               491.7797               507.7707
 Red. masses --      3.4738                 4.8655                 4.8227
 Frc consts  --      0.3884                 0.6933                 0.7326
 IR Inten    --      2.7266                21.0109                10.8048

                     25                     26                     27
                      A                      A                      A
 Frequencies --    527.3949               580.4627               601.2668
 Red. masses --      4.0588                 5.6268                 2.7422
 Frc consts  --      0.6652                 1.1170                 0.5841
 IR Inten    --      4.0008                32.3369                14.3805

                     28                     29                     30
                      A                      A                      A
 Frequencies --    639.5239               685.6057               739.7582
 Red. masses --      5.3613                 5.3304                 5.3899
 Frc consts  --      1.2919                 1.4763                 1.7378
 IR Inten    --     42.5679                14.7115                94.1377

                     31                     32                     33
                      A                      A                      A
 Frequencies --    746.2810               817.4199               858.6060
 Red. masses --      4.7683                 3.8589                 3.8313
 Frc consts  --      1.5647                 1.5192                 1.6641
 IR Inten    --      1.6787                 6.9973                25.6006

                     34                     35                     36
                      A                      A                      A
 Frequencies --    896.1630               921.8575               931.9130
 Red. masses --      3.4171                 3.6150                 3.3804
 Frc consts  --      1.6169                 1.8100                 1.7297
 IR Inten    --      9.7489                26.4981                28.3996

                     37                     38                     39
                      A                      A                      A
 Frequencies --    969.0258              1005.4849              1009.2670
 Red. masses --      2.5491                 2.0103                 3.9202
 Frc consts  --      1.4103                 1.1975                 2.3527
 IR Inten    --     17.3318                11.5985                36.9217

                     40                     41                     42
                      A                      A                      A
 Frequencies --   1023.8491              1045.8888              1062.6982
 Red. masses --      2.4779                 4.3120                 1.8698
 Frc consts  --      1.5304                 2.7791                 1.2441
 IR Inten    --     60.5521                22.8375                 8.8945

                     43                     44                     45
                      A                      A                      A
 Frequencies --   1067.4221              1068.2621              1094.8008
 Red. masses --      2.5574                 4.2887                 1.8143
 Frc consts  --      1.7168                 2.8835                 1.2813
 IR Inten    --     17.3906                63.5900                45.7939

                     46                     47                     48
                      A                      A                      A
 Frequencies --   1133.2974              1142.4939              1165.1973
 Red. masses --      4.5508                 2.7318                 2.4501
 Frc consts  --      3.4437                 2.1009                 1.9599
 IR Inten    --     92.9755                96.9121               109.9035

                     49                     50                     51
                      A                      A                      A
 Frequencies --   1169.0925              1175.4636              1178.6227
 Red. masses --      1.3243                 1.2953                 1.3021
 Frc consts  --      1.0664                 1.0545                 1.0657
 IR Inten    --     18.2406                 7.8186                 2.5810

                     52                     53                     54
                      A                      A                      A
 Frequencies --   1190.3332              1192.6031              1217.5681
 Red. masses --      1.7047                 1.3775                 1.8072
 Frc consts  --      1.4231                 1.1543                 1.5785
 IR Inten    --     21.6820                11.9536                 7.2271

                     55                     56                     57
                      A                      A                      A
 Frequencies --   1220.9087              1236.0913              1237.4837
 Red. masses --      2.0425                 1.8453                 1.7799
 Frc consts  --      1.7939                 1.6612                 1.6059
 IR Inten    --     62.4638               248.3620                72.2340

                     58                     59                     60
                      A                      A                      A
 Frequencies --   1254.1035              1272.4587              1277.4071
 Red. masses --      2.4962                 1.5320                 1.5856
 Frc consts  --      2.3131                 1.4614                 1.5244
 IR Inten    --    228.6932                21.1850                16.1162

                     61                     62                     63
                      A                      A                      A
 Frequencies --   1306.8373              1337.6082              1349.0283
 Red. masses --      1.2898                 1.2201                 1.3533
 Frc consts  --      1.2979                 1.2862                 1.4511
 IR Inten    --     14.2223                 9.4357                 2.1510

                     64                     65                     66
                      A                      A                      A
 Frequencies --   1368.2583              1383.5821              1393.5131
 Red. masses --      1.5831                 1.5312                 1.4891
 Frc consts  --      1.7462                 1.7269                 1.7038
 IR Inten    --      0.5936                 2.7427                19.8268

                     67                     68                     69
                      A                      A                      A
 Frequencies --   1397.4982              1404.9297              1416.7242
 Red. masses --      1.3356                 1.5602                 1.7656
 Frc consts  --      1.5368                 1.8144                 2.0879
 IR Inten    --     32.9135                79.2889                 0.7016

                     70                     71                     72
                      A                      A                      A
 Frequencies --   1437.5306              1461.1238              1462.9052
 Red. masses --      1.6029                 1.0513                 1.1231
 Frc consts  --      1.9516                 1.3224                 1.4161
 IR Inten    --      3.1522                10.6913                 8.4635

                     73                     74                     75
                      A                      A                      A
 Frequencies --   1467.5079              1472.9947              1477.7395
 Red. masses --      1.0445                 1.1230                 1.1270
 Frc consts  --      1.3253                 1.4356                 1.4500
 IR Inten    --     13.3104                 5.0926                 9.6913

                     76                     77                     78
                      A                      A                      A
 Frequencies --   1480.9956              1484.4851              1488.5682
 Red. masses --      1.1020                 1.0518                 1.0628
 Frc consts  --      1.4241                 1.3657                 1.3875
 IR Inten    --     14.5361                13.0564                21.4766

                     79                     80                     81
                      A                      A                      A
 Frequencies --   1490.2000              1491.9214              1498.0230
 Red. masses --      1.0450                 1.0509                 1.0630
 Frc consts  --      1.3672                 1.3781                 1.4055
 IR Inten    --     20.6889                 2.7187                 9.5918

                     82                     83                     84
                      A                      A                      A
 Frequencies --   1505.0606              1855.4478              3018.4011
 Red. masses --      1.0641                11.6135                 1.0404
 Frc consts  --      1.4202                23.5565                 5.5850
 IR Inten    --     16.0850               222.9314                26.3482

                     85                     86                     87
                      A                      A                      A
 Frequencies --   3021.1087              3026.1180              3075.9398
 Red. masses --      1.0709                 1.0437                 1.0374
 Frc consts  --      5.7588                 5.6313                 5.7827
 IR Inten    --     12.6971                42.1672                 0.8640

                     88                     89                     90
                      A                      A                      A
 Frequencies --   3079.5679              3090.0330              3094.5869
 Red. masses --      1.0295                 1.1015                 1.0949
 Frc consts  --      5.7523                 6.1969                 6.1779
 IR Inten    --      2.8573                14.3729                16.5061

                     91                     92                     93
                      A                      A                      A
 Frequencies --   3097.0542              3102.8429              3122.0011
 Red. masses --      1.0963                 1.0886                 1.0595
 Frc consts  --      6.1955                 6.1748                 6.0843
 IR Inten    --     21.5967                 3.0514                 4.4880

                     94                     95                     96
                      A                      A                      A
 Frequencies --   3149.2726              3159.5011              3164.8678
 Red. masses --      1.0998                 1.0889                 1.0943
 Frc consts  --      6.4269                 6.4043                 6.4578
 IR Inten    --      0.4789                 0.9404                 2.2512

                     97                     98                     99
                      A                      A                      A
 Frequencies --   3165.1683              3176.4810              3193.8544
 Red. masses --      1.1011                 1.1005                 1.1094
 Frc consts  --      6.4992                 6.5420                 6.6676
 IR Inten    --      8.7485                 4.7215                 0.2258

                    100                    101                    102
                      A                      A                      A
 Frequencies --   3198.9486              3211.4877              3216.7996
 Red. masses --      1.1039                 1.1104                 1.1135
 Frc consts  --      6.6560                 6.7476                 6.7887
 IR Inten    --      0.7158                 0.7221                 2.0350

 - Thermochemistry -
 -------------------
 Temperature   298.150 Kelvin.  Pressure   1.00000 Atm.
 Atom     1 has atomic number  6 and mass  12.00000

 Molecular mass:   247.11816 amu.
 Principal axes and moments of inertia in atomic units:
                           1         2         3
     Eigenvalues --  2825.407964550.461165442.87675
           X            0.99995  -0.00933  -0.00360
           Y            0.00938   0.99987   0.01287
           Z            0.00348  -0.01291   0.99991
 This molecule is an asymmetric top.
 Rotational symmetry number  1.
 Warning -- assumption of classical behavior for rotation
           may cause significant error
 Rotational temperatures (Kelvin)      0.03066     0.01903     0.01591
 Rotational constants (GHZ):           0.63875     0.39661     0.33158
 Zero-point vibrational energy     805066.2 (Joules/Mol)
                                  192.41543 (Kcal/Mol)
 Warning -- explicit consideration of  27 degrees of freedom as
           vibrations may cause significant error
 Vibrational temperatures:     53.56    64.93    92.30    95.32   119.15
          (Kelvin)            122.99   144.07   150.84   206.69   246.39
                              264.96   304.61   311.20   331.75   382.25
                              410.66   420.03   452.67   487.72   534.22
                              571.39   626.76   707.56   730.57   758.80
                              835.16   865.09   920.13   986.43  1064.35
                             1073.73  1176.08  1235.34  1289.38  1326.35
                             1340.81  1394.21  1446.67  1452.11  1473.09
                             1504.80  1528.98  1535.78  1536.99  1575.17
                             1630.56  1643.79  1676.46  1682.06  1691.23
                             1695.77  1712.62  1715.89  1751.81  1756.61
                             1778.46  1780.46  1804.37  1830.78  1837.90
                             1880.25  1924.52  1940.95  1968.62  1990.66
                             2004.95  2010.69  2021.38  2038.35  2068.28
                             2102.23  2104.79  2111.41  2119.31  2126.13
                             2130.82  2135.84  2141.71  2144.06  2146.54
                             2155.32  2165.44  2669.57  4342.80  4346.70
                             4353.90  4425.59  4430.81  4445.86  4452.41
                             4455.96  4464.29  4491.86  4531.10  4545.81
                             4553.53  4553.97  4570.24  4595.24  4602.57
                             4620.61  4628.25

 Zero-point correction=                           0.306634 (Hartree/Particle)
 Thermal correction to Energy=                    0.324657
 Thermal correction to Enthalpy=                  0.325601
 Thermal correction to Gibbs Free Energy=         0.259869
 Sum of electronic and zero-point Energies=           -880.613888
 Sum of electronic and thermal Energies=              -880.595865
 Sum of electronic and thermal Enthalpies=            -880.594921
 Sum of electronic and thermal Free Energies=         -880.660653

                     E (Thermal)             CV                S
                      KCal/Mol        Cal/Mol-Kelvin    Cal/Mol-Kelvin
 Total                  203.725             65.473            138.345
 Electronic               0.000              0.000              0.000
 Translational            0.889              2.981             42.415
 Rotational               0.889              2.981             32.615
 Vibrational            201.948             59.512             63.316
 Vibration     1          0.594              1.982              5.402
 Vibration     2          0.595              1.979              5.020
 Vibration     3          0.597              1.971              4.325
 Vibration     4          0.598              1.970              4.262
 Vibration     5          0.600              1.961              3.823
 Vibration     6          0.601              1.959              3.761
 Vibration     7          0.604              1.949              3.452
 Vibration     8          0.605              1.945              3.362
 Vibration     9          0.616              1.909              2.755
 Vibration    10          0.626              1.878              2.422
 Vibration    11          0.631              1.861              2.286
 Vibration    12          0.643              1.823              2.029
 Vibration    13          0.645              1.816              1.990
 Vibration    14          0.652              1.794              1.874
 Vibration    15          0.672              1.736              1.624
 Vibration    16          0.683              1.701              1.501
 Vibration    17          0.687              1.689              1.463
 Vibration    18          0.702              1.646              1.338
 Vibration    19          0.719              1.598              1.217
 Vibration    20          0.743              1.531              1.074
 Vibration    21          0.764              1.476              0.973
 Vibration    22          0.796              1.393              0.840
 Vibration    23          0.848              1.268              0.679
 Vibration    24          0.863              1.233              0.639
 Vibration    25          0.882              1.189              0.593
 Vibration    26          0.937              1.074              0.485
 Vibration    27          0.959              1.029              0.447

 Optimization completed.
    -- Stationary point found.
 Normal termination of Gaussian 09 at Tue Jan 10 04:21:37 2017.
