 Gaussian 09, Revision D.01,
 Gaussian 09:  EM64L-G09RevD.01 24-Apr-2013

 -------------------------------------------------------------------
 #P PBE1PBE/6-311+G(d,p) opt optcyc=999 freq EmpiricalDispersion=GD3
 -------------------------------------------------------------------

 -------
 disacch
 -------
 Symbolic Z-matrix:
 Charge =  1 Multiplicity = 1

 SCF Done:  E(RPBE1PBE) =  -880.923015705     A.U. after   20 cycles
 SCF Done:  E(RPBE1PBE) =  -880.927273286     A.U. after   19 cycles
 SCF Done:  E(RPBE1PBE) =  -880.927914959     A.U. after   17 cycles
 SCF Done:  E(RPBE1PBE) =  -880.928294628     A.U. after   15 cycles
 SCF Done:  E(RPBE1PBE) =  -880.928463464     A.U. after   16 cycles
 SCF Done:  E(RPBE1PBE) =  -880.928535863     A.U. after   12 cycles
 SCF Done:  E(RPBE1PBE) =  -880.928541648     A.U. after   16 cycles
 SCF Done:  E(RPBE1PBE) =  -880.928544538     A.U. after   15 cycles
 SCF Done:  E(RPBE1PBE) =  -880.928545661     A.U. after   11 cycles
 SCF Done:  E(RPBE1PBE) =  -880.928545699     A.U. after   14 cycles
 SCF Done:  E(RPBE1PBE) =  -880.928546223     A.U. after   13 cycles
 SCF Done:  E(RPBE1PBE) =  -880.928546670     A.U. after   14 cycles
 SCF Done:  E(RPBE1PBE) =  -880.928547043     A.U. after   13 cycles
 SCF Done:  E(RPBE1PBE) =  -880.928547226     A.U. after   14 cycles
 SCF Done:  E(RPBE1PBE) =  -880.928547106     A.U. after   13 cycles
 SCF Done:  E(RPBE1PBE) =  -880.928546996     A.U. after    9 cycles
 Optimization completed.
    -- Stationary point found.
 Normal termination of Gaussian 09 at Tue Oct 24 14:42:43 2017.

 ----------------------------------------------------------------------
 #P Geom=AllCheck Guess=TCheck SCRF=Check GenChk RPBE1PBE/6-311+G(d,p)
 Freq
 ----------------------------------------------------------------------

 Structure from the checkpoint file:  "Ac-4_cGalMe.chk"
 -------
 disacch
 -------
 Charge =  1 Multiplicity = 1

                         Standard orientation:
 ---------------------------------------------------------------------
 Center     Atomic      Atomic             Coordinates (Angstroms)
 Number     Number       Type             X           Y           Z
 ---------------------------------------------------------------------
      1          6           0        2.396782   -0.791266    0.600883
      2          6           0        1.180923    0.099992    0.498220
      3          6           0       -0.102802   -0.530645    0.987176
      4          6           0       -1.272159    0.475311    0.959633
      5          6           0       -1.097012    1.450320   -0.211244
      6          6           0       -0.224954    0.784079   -1.273350
      7          8           0        1.019580    0.462268   -0.888024
      8          8           0       -2.507902   -0.159061    0.820673
      9          8           0       -0.447031   -1.688630    0.149655
     10          8           0        3.508993   -0.003363    0.327706
     11          1           0        2.306549   -1.630075   -0.108227
     12          1           0        2.439372   -1.213163    1.619822
     13          1           0        1.357208    1.015196    1.075465
     14          1           0        0.027850   -0.978408    1.971610
     15          1           0       -1.214120    1.069642    1.881746
     16          1           0       -2.086208    1.667361   -0.635907
     17          1           0       -0.184334    1.295840   -2.232096
     18          8           0       -0.467339    2.588198    0.287615
     19          6           0        4.717371   -0.735959    0.311897
     20          1           0        5.515520   -0.026225    0.098218
     21          1           0        4.908389   -1.210330    1.283685
     22          1           0        4.703274   -1.507637   -0.469056
     23          6           0       -0.429618    3.697152   -0.602277
     24          1           0        0.270659    3.531495   -1.428683
     25          1           0       -1.429195    3.912737   -0.998067
     26          1           0       -0.083879    4.547935   -0.017449
     27          6           0       -2.957647   -0.832011    1.989603
     28          1           0       -2.335798   -1.706346    2.218714
     29          1           0       -2.965992   -0.152637    2.849260
     30          1           0       -3.974952   -1.163131    1.785847
     31          6           0       -0.994697   -1.550796   -1.004774
     32          8           0       -0.995613   -0.486887   -1.692794
     33          6           0       -1.652862   -2.743820   -1.567437
     34          1           0       -2.691765   -2.729934   -1.216989
     35          1           0       -1.177993   -3.649735   -1.191200
     36          1           0       -1.650046   -2.706938   -2.655299
 ---------------------------------------------------------------------

 SCF Done:  E(RPBE1PBE) =  -880.928546996     A.U. after    2 cycles

 The electronic state is 1-A.
 Alpha  occ. eigenvalues --  -19.45832 -19.44966 -19.39614 -19.36967 -19.35812
 Alpha  occ. eigenvalues --  -19.32479 -10.57686 -10.50681 -10.46706 -10.44416
 Alpha  occ. eigenvalues --  -10.43958 -10.43816 -10.40269 -10.39813 -10.39239
 Alpha  occ. eigenvalues --  -10.38600 -10.36034  -1.37424  -1.29437  -1.26820
 Alpha  occ. eigenvalues --   -1.23541  -1.21931  -1.19188  -1.02068  -0.98747
 Alpha  occ. eigenvalues --   -0.95823  -0.89716  -0.89034  -0.86211  -0.82773
 Alpha  occ. eigenvalues --   -0.81368  -0.79320  -0.77829  -0.76697  -0.73545
 Alpha  occ. eigenvalues --   -0.72278  -0.68356  -0.67809  -0.67047  -0.66742
 Alpha  occ. eigenvalues --   -0.64663  -0.63967  -0.63242  -0.61972  -0.61502
 Alpha  occ. eigenvalues --   -0.60544  -0.59741  -0.58668  -0.58490  -0.58172
 Alpha  occ. eigenvalues --   -0.57680  -0.56750  -0.56080  -0.54955  -0.54541
 Alpha  occ. eigenvalues --   -0.52233  -0.51893  -0.51807  -0.49146  -0.48814
 Alpha  occ. eigenvalues --   -0.47704  -0.46619  -0.45096  -0.43400  -0.41977
 Alpha  occ. eigenvalues --   -0.38966
 Alpha virt. eigenvalues --   -0.20391  -0.12027  -0.10356  -0.09761  -0.09088
 Alpha virt. eigenvalues --   -0.08511  -0.07978  -0.07127  -0.06470  -0.06303
 Alpha virt. eigenvalues --   -0.06147  -0.05914  -0.05487  -0.04642  -0.04366

 Mulliken charges:
               1
     1  C   -0.531733
     2  C   -0.375957
     3  C    0.069241
     4  C   -0.348587
     5  C   -0.138431
     6  C   -0.436771
     7  O    0.106149
     8  O    0.048381
     9  O    0.216287
    10  O   -0.107169
    11  H    0.189921
    12  H    0.173535
    13  H    0.287091
    14  H    0.256577
    15  H    0.255757
    16  H    0.255062
    17  H    0.284434
    18  O    0.030956
    19  C   -0.294907
    20  H    0.187037
    21  H    0.158016
    22  H    0.160139
    23  C   -0.304080
    24  H    0.179431
    25  H    0.176268
    26  H    0.203429
    27  C   -0.305070
    28  H    0.177119
    29  H    0.188384
    30  H    0.206595
    31  C    0.052491
    32  O    0.263880
    33  C   -0.999372
    34  H    0.248307
    35  H    0.235939
    36  H    0.231654
 Sum of Mulliken charges =   1.00000

 Dipole moment (field-independent basis, Debye):
    X=             -2.9063    Y=             -3.0249    Z=             -0.1416  Tot=              4.1972
 Quadrupole moment (field-independent basis, Debye-Ang):
   XX=            -76.5055   YY=            -72.5323   ZZ=            -83.7526
   XY=              0.7424   XZ=              1.7341   YZ=             -1.0773

  Exact polarizability: 149.999   6.808 147.248   1.569  -0.794 127.719
 Approx polarizability: 184.059   9.020 191.743   7.583  -3.221 186.978

                      1                      2                      3
                      A                      A                      A
 Frequencies --     50.0436                55.0944                73.9896
 Red. masses --      3.7782                 3.2057                 1.1337
 Frc consts  --      0.0056                 0.0057                 0.0037
 IR Inten    --      0.1053                 0.2358                 0.9826

                      4                      5                      6
                      A                      A                      A
 Frequencies --     78.2886                79.8765                88.5762
 Red. masses --      2.4510                 2.9001                 2.3048
 Frc consts  --      0.0089                 0.0109                 0.0107
 IR Inten    --      2.7899                 2.9066                 8.0221

                      7                      8                      9
                      A                      A                      A
 Frequencies --    105.2546               114.0650               157.9721
 Red. masses --      2.3178                 2.3418                 2.7679
 Frc consts  --      0.0151                 0.0180                 0.0407
 IR Inten    --      0.8985                 1.6679                 2.5044

                     10                     11                     12
                      A                      A                      A
 Frequencies --    172.6401               183.1980               194.9783
 Red. masses --      2.7655                 1.5078                 1.4965
 Frc consts  --      0.0486                 0.0298                 0.0335
 IR Inten    --      1.3612                 0.4266                 2.5411

                     13                     14                     15
                      A                      A                      A
 Frequencies --    227.3085               246.9932               267.4288
 Red. masses --      1.3151                 3.6060                 4.4789
 Frc consts  --      0.0400                 0.1296                 0.1887
 IR Inten    --      3.8047                10.2471                 6.5715

                     16                     17                     18
                      A                      A                      A
 Frequencies --    281.2744               292.6921               328.9646
 Red. masses --      5.3609                 4.1739                 5.3123
 Frc consts  --      0.2499                 0.2107                 0.3387
 IR Inten    --      2.2637                 4.4228                 1.9216

                     19                     20                     21
                      A                      A                      A
 Frequencies --    339.0588               352.7332               358.3685
 Red. masses --      4.1888                 4.6349                 3.2137
 Frc consts  --      0.2837                 0.3398                 0.2432
 IR Inten    --      2.9131                 3.6082                 0.6773

                     22                     23                     24
                      A                      A                      A
 Frequencies --    398.6448               426.7466               476.1054
 Red. masses --      5.6766                 5.1411                 4.3195
 Frc consts  --      0.5315                 0.5516                 0.5769
 IR Inten    --      3.4676                 2.1771                 5.7321

                     25                     26                     27
                      A                      A                      A
 Frequencies --    552.0505               569.5427               616.7191
 Red. masses --      3.1410                 3.5649                 3.4595
 Frc consts  --      0.5640                 0.6813                 0.7752
 IR Inten    --      4.5529                 5.2071                 6.6923

                     28                     29                     30
                      A                      A                      A
 Frequencies --    657.3393               718.5594               741.6029
 Red. masses --      5.9081                 6.0612                 6.0777
 Frc consts  --      1.5041                 1.8439                 1.9694
 IR Inten    --     43.1608               134.5889                36.3684

                     31                     32                     33
                      A                      A                      A
 Frequencies --    772.7528               816.6500               852.6022
 Red. masses --      4.7071                 6.4573                 2.9764
 Frc consts  --      1.6561                 2.5373                 1.2748
 IR Inten    --      3.2226                30.9139                 7.8741

                     34                     35                     36
                      A                      A                      A
 Frequencies --    897.0654               953.6023               969.0217
 Red. masses --      3.0813                 5.1909                 3.1614
 Frc consts  --      1.4609                 2.7812                 1.7490
 IR Inten    --      4.3666                27.6848                11.5588

                     37                     38                     39
                      A                      A                      A
 Frequencies --    981.5560               993.7164              1021.2972
 Red. masses --      3.3526                 2.4114                 3.4327
 Frc consts  --      1.9031                 1.4029                 2.1096
 IR Inten    --     53.0116                26.9850                27.3979

                     40                     41                     42
                      A                      A                      A
 Frequencies --   1036.8500              1047.8609              1049.5454
 Red. masses --      2.2927                 1.8874                 2.1744
 Frc consts  --      1.4522                 1.2210                 1.4112
 IR Inten    --     25.7918                17.2578                11.9609

                     43                     44                     45
                      A                      A                      A
 Frequencies --   1070.5075              1100.1988              1140.2623
 Red. masses --      2.8223                 2.7772                 1.9432
 Frc consts  --      1.9056                 1.9806                 1.4886
 IR Inten    --     18.1516                14.1815                55.7914

                     46                     47                     48
                      A                      A                      A
 Frequencies --   1147.0494              1156.8302              1175.4389
 Red. masses --      1.9814                 2.4553                 1.4151
 Frc consts  --      1.5360                 1.9359                 1.1520
 IR Inten    --     15.5165                23.6506                36.9363

                     49                     50                     51
                      A                      A                      A
 Frequencies --   1176.6732              1179.7302              1180.4520
 Red. masses --      1.3159                 1.3877                 1.8616
 Frc consts  --      1.0735                 1.1379                 1.5284
 IR Inten    --      9.1260                19.2357                82.3225

                     52                     53                     54
                      A                      A                      A
 Frequencies --   1192.6100              1223.7259              1229.6199
 Red. masses --      2.1425                 2.2357                 2.5307
 Frc consts  --      1.7954                 1.9726                 2.2544
 IR Inten    --     93.0865               196.3946                73.8340

                     55                     56                     57
                      A                      A                      A
 Frequencies --   1239.6382              1246.5804              1272.9297
 Red. masses --      2.4097                 2.0600                 1.3839
 Frc consts  --      2.1818                 1.8861                 1.3212
 IR Inten    --      9.8536                11.7111                30.4415

                     58                     59                     60
                      A                      A                      A
 Frequencies --   1283.2364              1311.0268              1321.8171
 Red. masses --      1.2962                 1.6931                 1.2889
 Frc consts  --      1.2576                 1.7146                 1.3268
 IR Inten    --      9.7342                20.0395                 1.6990

                     61                     62                     63
                      A                      A                      A
 Frequencies --   1331.0498              1345.4415              1365.2561
 Red. masses --      1.4024                 1.2907                 1.3112
 Frc consts  --      1.4639                 1.3766                 1.4399
 IR Inten    --     20.3651                39.8720                24.7609

                     64                     65                     66
                      A                      A                      A
 Frequencies --   1366.4125              1385.2027              1391.6464
 Red. masses --      1.3504                 1.2747                 1.7219
 Frc consts  --      1.4855                 1.4411                 1.9648
 IR Inten    --      2.8153                 5.5590                32.5061

                     67                     68                     69
                      A                      A                      A
 Frequencies --   1404.3315              1431.3144              1439.2267
 Red. masses --      1.3885                 1.6812                 1.0765
 Frc consts  --      1.6134                 2.0293                 1.3138
 IR Inten    --     34.9331                 8.6880                56.4833

                     70                     71                     72
                      A                      A                      A
 Frequencies --   1450.1269              1452.1925              1473.6590
 Red. masses --      1.2773                 1.5180                 1.1127
 Frc consts  --      1.5825                 1.8861                 1.4238
 IR Inten    --     91.7346                 3.1924                 4.7743

                     73                     74                     75
                      A                      A                      A
 Frequencies --   1475.7770              1477.4474              1487.5347
 Red. masses --      1.1410                 1.2176                 1.0415
 Frc consts  --      1.4641                 1.5660                 1.3578
 IR Inten    --      7.8319                 3.6251                13.7806

                     76                     77                     78
                      A                      A                      A
 Frequencies --   1491.0013              1492.1257              1494.5284
 Red. masses --      1.0702                 1.0713                 1.0906
 Frc consts  --      1.4018                 1.4053                 1.4352
 IR Inten    --     16.0378                11.5641                14.7256

                     79                     80                     81
                      A                      A                      A
 Frequencies --   1499.7042              1502.5254              1510.4353
 Red. masses --      1.0530                 1.0444                 1.6177
 Frc consts  --      1.3954                 1.3892                 2.1745
 IR Inten    --      3.9770                16.2159               160.4749

                     82                     83                     84
                      A                      A                      A
 Frequencies --   1511.1958              1621.3320              2974.1700
 Red. masses --      1.6773                 5.4201                 1.0573
 Frc consts  --      2.2568                 8.3947                 5.5104
 IR Inten    --    119.0011               288.6135                38.4792

                     85                     86                     87
                      A                      A                      A
 Frequencies --   3010.5660              3015.2276              3025.1554
 Red. masses --      1.0391                 1.0993                 1.0359
 Frc consts  --      5.5489                 5.8887                 5.5853
 IR Inten    --     48.3450                33.9691                31.3149

                     88                     89                     90
                      A                      A                      A
 Frequencies --   3027.3387              3047.0423              3052.3494
 Red. masses --      1.0351                 1.0852                 1.0855
 Frc consts  --      5.5895                 5.9365                 5.9589
 IR Inten    --     24.2364                 3.2120                 8.4231

                     91                     92                     93
                      A                      A                      A
 Frequencies --   3066.2377              3074.3076              3085.3003
 Red. masses --      1.0426                 1.1058                 1.0851
 Frc consts  --      5.7753                 6.1579                 6.0856
 IR Inten    --     18.3061                35.3815                 2.7824

                     94                     95                     96
                      A                      A                      A
 Frequencies --   3098.1902              3100.5196              3153.2479
 Red. masses --      1.1054                 1.1072                 1.0908
 Frc consts  --      6.2518                 6.2709                 6.3903
 IR Inten    --     21.7256                25.0731                 3.0092

                     97                     98                     99
                      A                      A                      A
 Frequencies --   3155.0888              3168.2161              3172.8063
 Red. masses --      1.0891                 1.0991                 1.1011
 Frc consts  --      6.3876                 6.5003                 6.5310
 IR Inten    --      1.0500                 9.0399                 4.8431

                    100                    101                    102
                      A                      A                      A
 Frequencies --   3175.5758              3180.9274              3204.7555
 Red. masses --      1.0999                 1.0924                 1.1074
 Frc consts  --      6.5352                 6.5124                 6.7010
 IR Inten    --      4.7916                 2.1305                 2.1286

 - Thermochemistry -
 -------------------
 Temperature   298.150 Kelvin.  Pressure   1.00000 Atm.
 Atom     1 has atomic number  6 and mass  12.00000

 Molecular mass:   247.11816 amu.
 Principal axes and moments of inertia in atomic units:
                           1         2         3
     Eigenvalues --  3096.392494575.676155777.96382
           X            0.99996  -0.00822  -0.00164
           Y            0.00819   0.99982  -0.01739
           Z            0.00178   0.01738   0.99985
 This molecule is an asymmetric top.
 Rotational symmetry number  1.
 Warning -- assumption of classical behavior for rotation
           may cause significant error
 Rotational temperatures (Kelvin)      0.02797     0.01893     0.01499
 Rotational constants (GHZ):           0.58285     0.39442     0.31235
 Zero-point vibrational energy     804090.6 (Joules/Mol)
                                  192.18226 (Kcal/Mol)
 Warning -- explicit consideration of  27 degrees of freedom as
           vibrations may cause significant error
 Vibrational temperatures:     72.00    79.27   106.45   112.64   114.92
          (Kelvin)            127.44   151.44   164.11   227.29   248.39
                              263.58   280.53   327.05   355.37   384.77
                              404.69   421.12   473.31   487.83   507.50
                              515.61   573.56   613.99   685.01   794.28
                              819.44   887.32   945.76  1033.85  1067.00
                             1111.82  1174.98  1226.70  1290.68  1372.02
                             1394.20  1412.24  1429.73  1469.42  1491.79
                             1507.64  1510.06  1540.22  1582.94  1640.58
                             1650.35  1664.42  1691.19  1692.97  1697.37
                             1698.41  1715.90  1760.67  1769.15  1783.56
                             1793.55  1831.46  1846.29  1886.27  1901.80
                             1915.08  1935.79  1964.30  1965.96  1993.00
                             2002.27  2020.52  2059.34  2070.72  2086.41
                             2089.38  2120.26  2123.31  2125.71  2140.23
                             2145.22  2146.83  2150.29  2157.74  2161.80
                             2173.18  2174.27  2332.73  4279.16  4331.53
                             4338.23  4352.52  4355.66  4384.01  4391.64
                             4411.63  4423.24  4439.05  4457.60  4460.95
                             4536.81  4539.46  4558.35  4564.95  4568.94
                             4576.64  4610.92

 Zero-point correction=                           0.306262 (Hartree/Particle)
 Thermal correction to Energy=                    0.324194
 Thermal correction to Enthalpy=                  0.325138
 Thermal correction to Gibbs Free Energy=         0.260177
 Sum of electronic and zero-point Energies=           -880.622285
 Sum of electronic and thermal Energies=              -880.604353
 Sum of electronic and thermal Enthalpies=            -880.603409
 Sum of electronic and thermal Free Energies=         -880.668370

                     E (Thermal)             CV                S
                      KCal/Mol        Cal/Mol-Kelvin    Cal/Mol-Kelvin
 Total                  203.435             65.222            136.722
 Electronic               0.000              0.000              0.000
 Translational            0.889              2.981             42.415
 Rotational               0.889              2.981             32.770
 Vibrational            201.657             59.261             61.537
 Vibration     1          0.595              1.978              4.816
 Vibration     2          0.596              1.976              4.626
 Vibration     3          0.599              1.966              4.044
 Vibration     4          0.600              1.964              3.933
 Vibration     5          0.600              1.963              3.894
 Vibration     6          0.601              1.957              3.691
 Vibration     7          0.605              1.945              3.355
 Vibration     8          0.607              1.938              3.199
 Vibration     9          0.621              1.894              2.574
 Vibration    10          0.626              1.876              2.407
 Vibration    11          0.631              1.863              2.296
 Vibration    12          0.636              1.847              2.180
 Vibration    13          0.651              1.799              1.900
 Vibration    14          0.661              1.768              1.752
 Vibration    15          0.673              1.733              1.613
 Vibration    16          0.681              1.708              1.526
 Vibration    17          0.688              1.687              1.458
 Vibration    18          0.712              1.618              1.265
 Vibration    19          0.719              1.597              1.217
 Vibration    20          0.729              1.570              1.154
 Vibration    21          0.733              1.558              1.129
 Vibration    22          0.765              1.473              0.968
 Vibration    23          0.788              1.412              0.869
 Vibration    24          0.833              1.303              0.721
 Vibration    25          0.907              1.135              0.540
 Vibration    26          0.926              1.097              0.505
 Vibration    27          0.976              0.997              0.422

 Optimization completed.
    -- Stationary point found.
 Normal termination of Gaussian 09 at Tue Oct 24 15:09:22 2017.
