 Gaussian 09, Revision D.01,
 Gaussian 09:  EM64L-G09RevD.01 24-Apr-2013

 -------------------------------------------------------------------
 #P PBE1PBE/6-311+G(d,p) opt optcyc=999 freq EmpiricalDispersion=GD3
 -------------------------------------------------------------------

 -------
 disacch
 -------
 Symbolic Z-matrix:
 Charge =  1 Multiplicity = 1

 SCF Done:  E(RPBE1PBE) =  -880.922962009     A.U. after   19 cycles
 SCF Done:  E(RPBE1PBE) =  -880.927234372     A.U. after   15 cycles
 SCF Done:  E(RPBE1PBE) =  -880.927919418     A.U. after   18 cycles
 SCF Done:  E(RPBE1PBE) =  -880.928302176     A.U. after   17 cycles
 SCF Done:  E(RPBE1PBE) =  -880.928458812     A.U. after   16 cycles
 SCF Done:  E(RPBE1PBE) =  -880.928543737     A.U. after   15 cycles
 SCF Done:  E(RPBE1PBE) =  -880.928555100     A.U. after   10 cycles
 SCF Done:  E(RPBE1PBE) =  -880.928557180     A.U. after   15 cycles
 SCF Done:  E(RPBE1PBE) =  -880.928557834     A.U. after   11 cycles
 Optimization completed.
    -- Stationary point found.
 Normal termination of Gaussian 09 at Tue Oct 24 13:48:51 2017.

 ----------------------------------------------------------------------
 #P Geom=AllCheck Guess=TCheck SCRF=Check GenChk RPBE1PBE/6-311+G(d,p)
 Freq
 ----------------------------------------------------------------------

 Structure from the checkpoint file:  "Ac-4_cGalMe.chk"
 -------
 disacch
 -------
 Charge =  1 Multiplicity = 1

                         Standard orientation:
 ---------------------------------------------------------------------
 Center     Atomic      Atomic             Coordinates (Angstroms)
 Number     Number       Type             X           Y           Z
 ---------------------------------------------------------------------
      1          6           0       -2.537131   -0.449907   -0.685364
      2          6           0       -1.206927    0.243124   -0.507408
      3          6           0       -0.027396   -0.501680   -1.089556
      4          6           0        1.254713    0.324011   -0.989451
      5          6           0        1.244525    1.171940    0.299136
      6          6           0        0.294917    0.515470    1.298500
      7          8           0       -0.985182    0.414754    0.908776
      8          8           0        2.334154   -0.557616   -1.062174
      9          8           0        0.141102   -1.783795   -0.383938
     10          8           0       -3.525216    0.446945   -0.294912
     11          1           0       -2.563381   -1.372607   -0.083455
     12          1           0       -2.644770   -0.735512   -1.745820
     13          1           0       -1.253415    1.235586   -0.970016
     14          1           0       -0.207724   -0.821397   -2.114730
     15          1           0        1.241921    1.034063   -1.828538
     16          1           0        2.252455    1.192734    0.737352
     17          1           0        0.331796    0.914055    2.309921
     18          8           0        0.793719    2.443013   -0.047540
     19          6           0       -4.824407   -0.107646   -0.339571
     20          1           0       -5.513987    0.674232   -0.024096
     21          1           0       -5.085386   -0.429014   -1.356623
     22          1           0       -4.913907   -0.963475    0.342486
     23          6           0        0.878391    3.421780    0.980691
     24          1           0        0.132663    3.251727    1.765269
     25          1           0        1.883465    3.440722    1.419445
     26          1           0        0.675236    4.381590    0.508559
     27          6           0        3.553290    0.046788   -1.476341
     28          1           0        3.451659    0.467266   -2.482837
     29          1           0        3.871310    0.835462   -0.784690
     30          1           0        4.303867   -0.741907   -1.486614
     31          6           0        0.704015   -1.862421    0.764443
     32          8           0        0.887716   -0.888128    1.555351
     33          6           0        1.163007   -3.199187    1.181031
     34          1           0        2.130428   -3.370850    0.694884
     35          1           0        0.470412   -3.959476    0.817494
     36          1           0        1.285024   -3.248216    2.260850
 ---------------------------------------------------------------------

 SCF Done:  E(RPBE1PBE) =  -880.928557834     A.U. after    1 cycles

 The electronic state is 1-A.
 Alpha  occ. eigenvalues --  -19.45541 -19.44918 -19.39658 -19.36605 -19.36019
 Alpha  occ. eigenvalues --  -19.32421 -10.57493 -10.50757 -10.46653 -10.44347
 Alpha  occ. eigenvalues --  -10.43945 -10.43886 -10.40185 -10.39367 -10.39023
 Alpha  occ. eigenvalues --  -10.38829 -10.35977  -1.37320  -1.29276  -1.26784
 Alpha  occ. eigenvalues --   -1.23327  -1.22014  -1.19124  -1.02125  -0.98669
 Alpha  occ. eigenvalues --   -0.95536  -0.90112  -0.88501  -0.86256  -0.82923
 Alpha  occ. eigenvalues --   -0.80892  -0.79385  -0.77803  -0.76785  -0.73453
 Alpha  occ. eigenvalues --   -0.71859  -0.68442  -0.67767  -0.67015  -0.66599
 Alpha  occ. eigenvalues --   -0.64460  -0.63958  -0.63355  -0.61888  -0.61396
 Alpha  occ. eigenvalues --   -0.60370  -0.59572  -0.58566  -0.58406  -0.57803
 Alpha  occ. eigenvalues --   -0.57536  -0.56962  -0.55788  -0.54787  -0.54214
 Alpha  occ. eigenvalues --   -0.52760  -0.51873  -0.51729  -0.49182  -0.48425
 Alpha  occ. eigenvalues --   -0.47825  -0.46914  -0.45079  -0.42989  -0.41941
 Alpha  occ. eigenvalues --   -0.38904
 Alpha virt. eigenvalues --   -0.20246  -0.11735  -0.10399  -0.09802  -0.09231
 Alpha virt. eigenvalues --   -0.08464  -0.08022  -0.06752  -0.06671  -0.06196
 Alpha virt. eigenvalues --   -0.05917  -0.05810  -0.05499  -0.04550  -0.04135

 Mulliken charges:
               1
     1  C   -0.542098
     2  C   -0.158854
     3  C    0.022938
     4  C   -0.524836
     5  C   -0.143102
     6  C   -0.416455
     7  O    0.089376
     8  O    0.041076
     9  O    0.256804
    10  O   -0.107126
    11  H    0.188958
    12  H    0.175879
    13  H    0.280423
    14  H    0.260517
    15  H    0.261477
    16  H    0.236770
    17  H    0.280630
    18  O    0.042399
    19  C   -0.297088
    20  H    0.186887
    21  H    0.158504
    22  H    0.159854
    23  C   -0.305729
    24  H    0.181426
    25  H    0.173442
    26  H    0.205530
    27  C   -0.264998
    28  H    0.183140
    29  H    0.169780
    30  H    0.198128
    31  C    0.091414
    32  O    0.267709
    33  C   -1.064438
    34  H    0.249261
    35  H    0.232855
    36  H    0.229548
 Sum of Mulliken charges =   1.00000

 Dipole moment (field-independent basis, Debye):
    X=              3.0028    Y=             -2.5369    Z=              0.4449  Tot=              3.9561
 Quadrupole moment (field-independent basis, Debye-Ang):
   XX=            -70.3923   YY=            -73.9257   ZZ=            -86.7919
   XY=              3.6733   XZ=              3.2805   YZ=             -0.8577

  Exact polarizability: 152.679  -3.963 147.385   1.828   0.648 124.616
 Approx polarizability: 182.625  -6.999 193.537   7.258   2.295 184.654

                      1                      2                      3
                      A                      A                      A
 Frequencies --     51.2249                55.8275                74.4295
 Red. masses --      3.8373                 3.3070                 1.0754
 Frc consts  --      0.0059                 0.0061                 0.0035
 IR Inten    --      0.1040                 0.1235                 1.0018

                      4                      5                      6
                      A                      A                      A
 Frequencies --     78.6620                82.9203                94.8633
 Red. masses --      2.8557                 2.5593                 2.5787
 Frc consts  --      0.0104                 0.0104                 0.0137
 IR Inten    --      4.9114                 4.5785                 1.8017

                      7                      8                      9
                      A                      A                      A
 Frequencies --    109.9177               119.1979               160.9555
 Red. masses --      2.4685                 2.0805                 1.6609
 Frc consts  --      0.0176                 0.0174                 0.0254
 IR Inten    --      0.5666                 4.8599                 2.0824

                     10                     11                     12
                      A                      A                      A
 Frequencies --    172.4028               180.4215               199.1101
 Red. masses --      3.2834                 2.4159                 1.5474
 Frc consts  --      0.0575                 0.0463                 0.0361
 IR Inten    --      1.1551                 0.5697                 1.3264

                     13                     14                     15
                      A                      A                      A
 Frequencies --    227.2000               245.0967               254.1184
 Red. masses --      1.3104                 3.4792                 3.4627
 Frc consts  --      0.0399                 0.1231                 0.1317
 IR Inten    --      4.1856                 8.0264                 5.5078

                     16                     17                     18
                      A                      A                      A
 Frequencies --    278.0705               293.6735               317.5906
 Red. masses --      5.1856                 4.7677                 4.7035
 Frc consts  --      0.2362                 0.2423                 0.2795
 IR Inten    --      1.5346                 3.5092                 0.4540

                     19                     20                     21
                      A                      A                      A
 Frequencies --    328.0294               355.4411               363.7152
 Red. masses --      4.4008                 3.2370                 4.8018
 Frc consts  --      0.2790                 0.2410                 0.3743
 IR Inten    --      6.5721                 0.7687                 1.0835

                     22                     23                     24
                      A                      A                      A
 Frequencies --    393.6655               447.8040               496.7705
 Red. masses --      5.1499                 4.8663                 4.0681
 Frc consts  --      0.4702                 0.5749                 0.5915
 IR Inten    --      5.8580                 1.4543                15.3673

                     25                     26                     27
                      A                      A                      A
 Frequencies --    518.5868               558.3252               623.2110
 Red. masses --      4.0347                 3.1928                 3.3202
 Frc consts  --      0.6393                 0.5864                 0.7598
 IR Inten    --      5.6288                 2.5820                 7.3828

                     28                     29                     30
                      A                      A                      A
 Frequencies --    653.1214               720.3027               742.8176
 Red. masses --      5.8128                 6.0089                 5.8077
 Frc consts  --      1.4609                 1.8368                 1.8881
 IR Inten    --     40.0226               122.0880                37.4187

                     31                     32                     33
                      A                      A                      A
 Frequencies --    770.3045               818.4951               852.6951
 Red. masses --      4.8317                 6.0726                 2.9829
 Frc consts  --      1.6892                 2.3969                 1.2778
 IR Inten    --      5.0383                25.7627                 7.9454

                     34                     35                     36
                      A                      A                      A
 Frequencies --    895.9871               952.7548               973.4272
 Red. masses --      3.1435                 5.1235                 3.2218
 Frc consts  --      1.4868                 2.7402                 1.7987
 IR Inten    --      1.9877                22.0114                18.1143

                     37                     38                     39
                      A                      A                      A
 Frequencies --    994.9446              1001.2206              1020.0579
 Red. masses --      3.0713                 2.4826                 2.9858
 Frc consts  --      1.7913                 1.4663                 1.8305
 IR Inten    --     19.3240                19.4551                10.9313

                     40                     41                     42
                      A                      A                      A
 Frequencies --   1032.4000              1048.7626              1051.6033
 Red. masses --      2.8739                 1.9391                 1.9301
 Frc consts  --      1.8048                 1.2566                 1.2576
 IR Inten    --     80.1321                 6.2625                26.7311

                     43                     44                     45
                      A                      A                      A
 Frequencies --   1076.0560              1100.4945              1137.2548
 Red. masses --      2.8062                 2.5370                 2.2921
 Frc consts  --      1.9145                 1.8103                 1.7466
 IR Inten    --     23.3501                21.6562                70.0922

                     46                     47                     48
                      A                      A                      A
 Frequencies --   1146.6790              1163.9622              1174.1649
 Red. masses --      1.8213                 2.3188                 1.4707
 Frc consts  --      1.4110                 1.8509                 1.1946
 IR Inten    --     31.2820                89.5643                33.7896

                     49                     50                     51
                      A                      A                      A
 Frequencies --   1177.3380              1179.5396              1186.0296
 Red. masses --      1.3412                 1.3759                 1.8330
 Frc consts  --      1.0954                 1.1279                 1.5192
 IR Inten    --      7.5218                22.1395                78.4497

                     52                     53                     54
                      A                      A                      A
 Frequencies --   1192.8972              1226.7754              1231.7275
 Red. masses --      2.4672                 2.1971                 2.4908
 Frc consts  --      2.0686                 1.9482                 2.2264
 IR Inten    --     47.1536               208.9034                51.7899

                     55                     56                     57
                      A                      A                      A
 Frequencies --   1236.8193              1239.5890              1272.8603
 Red. masses --      2.0516                 2.3729                 1.3357
 Frc consts  --      1.8491                 2.1482                 1.2750
 IR Inten    --     20.8264                 7.8099                15.9690

                     58                     59                     60
                      A                      A                      A
 Frequencies --   1284.1523              1307.8557              1322.6695
 Red. masses --      1.3159                 1.6254                 1.2327
 Frc consts  --      1.2785                 1.6381                 1.2706
 IR Inten    --      1.3401                25.8166                 3.9030

                     61                     62                     63
                      A                      A                      A
 Frequencies --   1333.7665              1347.6603              1366.6751
 Red. masses --      1.4764                 1.2738                 1.3088
 Frc consts  --      1.5474                 1.3630                 1.4403
 IR Inten    --     24.2850                31.4888                21.9594

                     64                     65                     66
                      A                      A                      A
 Frequencies --   1368.1837              1384.6543              1399.5684
 Red. masses --      1.4067                 1.2696                 1.4253
 Frc consts  --      1.5514                 1.4342                 1.6449
 IR Inten    --      2.4817                10.4520                 6.5337

                     67                     68                     69
                      A                      A                      A
 Frequencies --   1403.7651              1430.1293              1440.0500
 Red. masses --      1.6463                 1.6302                 1.0985
 Frc consts  --      1.9114                 1.9645                 1.3422
 IR Inten    --     53.3607                14.6459                53.8704

                     70                     71                     72
                      A                      A                      A
 Frequencies --   1451.4337              1454.8055              1473.8870
 Red. masses --      1.1883                 1.5285                 1.1137
 Frc consts  --      1.4749                 1.9061                 1.4254
 IR Inten    --     67.2802                 3.7323                 6.4854

                     73                     74                     75
                      A                      A                      A
 Frequencies --   1477.9294              1479.2309              1487.8287
 Red. masses --      1.1445                 1.2366                 1.0412
 Frc consts  --      1.4729                 1.5942                 1.3579
 IR Inten    --      3.2463                 4.3337                13.8197

                     76                     77                     78
                      A                      A                      A
 Frequencies --   1490.7667              1491.4636              1493.4530
 Red. masses --      1.0445                 1.0736                 1.0854
 Frc consts  --      1.3677                 1.4071                 1.4263
 IR Inten    --     13.6948                12.8288                12.9541

                     79                     80                     81
                      A                      A                      A
 Frequencies --   1499.4784              1503.7280              1510.7709
 Red. masses --      1.0664                 1.0443                 1.1128
 Frc consts  --      1.4128                 1.3912                 1.4964
 IR Inten    --     10.5776                16.7975                11.0095

                     82                     83                     84
                      A                      A                      A
 Frequencies --   1514.9603              1624.5621              2975.9245
 Red. masses --      3.8968                 5.3757                 1.0575
 Frc consts  --      5.2694                 8.3591                 5.5180
 IR Inten    --    299.0607               290.1499                37.2832

                     85                     86                     87
                      A                      A                      A
 Frequencies --   3011.0145              3016.7722              3025.8476
 Red. masses --      1.0379                 1.1007                 1.0358
 Frc consts  --      5.5439                 5.9019                 5.5877
 IR Inten    --     49.5783                33.6909                27.6647

                     88                     89                     90
                      A                      A                      A
 Frequencies --   3031.1551              3035.8064              3039.2300
 Red. masses --      1.0414                 1.0782                 1.0837
 Frc consts  --      5.6376                 5.8544                 5.8975
 IR Inten    --     20.7454                25.6343                 3.9636

                     91                     92                     93
                      A                      A                      A
 Frequencies --   3067.9108              3074.6592              3090.6422
 Red. masses --      1.0415                 1.1059                 1.0850
 Frc consts  --      5.7754                 6.1596                 6.1063
 IR Inten    --     19.0086                34.8431                 2.9691

                     94                     95                     96
                      A                      A                      A
 Frequencies --   3099.3921              3104.2850              3150.7310
 Red. masses --      1.1068                 1.1065                 1.0928
 Frc consts  --      6.2643                 6.2823                 6.3919
 IR Inten    --     24.0062                22.3428                 3.6682

                     97                     98                     99
                      A                      A                      A
 Frequencies --   3161.3480              3168.2536              3174.9227
 Red. masses --      1.0895                 1.0992                 1.0987
 Frc consts  --      6.4153                 6.5007                 6.5254
 IR Inten    --      0.7482                 9.0989                 5.1507

                    100                    101                    102
                      A                      A                      A
 Frequencies --   3176.4581              3178.2084              3206.7484
 Red. masses --      1.1017                 1.0934                 1.1065
 Frc consts  --      6.5495                 6.5072                 6.7042
 IR Inten    --      5.7458                 2.0979                 2.3849

 - Thermochemistry -
 -------------------
 Temperature   298.150 Kelvin.  Pressure   1.00000 Atm.
 Atom     1 has atomic number  6 and mass  12.00000

 Molecular mass:   247.11816 amu.
 Principal axes and moments of inertia in atomic units:
                           1         2         3
     Eigenvalues --  2949.536464687.788985972.06440
           X            0.99980   0.02006   0.00243
           Y           -0.02007   0.99977   0.00689
           Z           -0.00229  -0.00694   0.99997
 This molecule is an asymmetric top.
 Rotational symmetry number  1.
 Warning -- assumption of classical behavior for rotation
           may cause significant error
 Rotational temperatures (Kelvin)      0.02937     0.01848     0.01450
 Rotational constants (GHZ):           0.61187     0.38499     0.30220
 Zero-point vibrational energy     804399.2 (Joules/Mol)
                                  192.25603 (Kcal/Mol)
 Warning -- explicit consideration of  26 degrees of freedom as
           vibrations may cause significant error
 Vibrational temperatures:     73.70    80.32   107.09   113.18   119.30
          (Kelvin)            136.49   158.15   171.50   231.58   248.05
                              259.59   286.47   326.89   352.64   365.62
                              400.08   422.53   456.94   471.96   511.40
                              523.30   566.40   644.29   714.74   746.13
                              803.30   896.66   939.69  1036.35  1068.75
                             1108.30  1177.63  1226.84  1289.12  1370.80
                             1400.54  1431.50  1440.53  1467.63  1485.39
                             1508.93  1513.02  1548.20  1583.36  1636.25
                             1649.81  1674.68  1689.36  1693.92  1697.09
                             1706.43  1716.31  1765.05  1772.18  1779.50
                             1783.49  1831.36  1847.61  1881.71  1903.02
                             1918.99  1938.98  1966.34  1968.51  1992.21
                             2013.66  2019.70  2057.63  2071.91  2088.29
                             2093.14  2120.59  2126.41  2128.28  2140.65
                             2144.88  2145.88  2148.74  2157.41  2163.53
                             2173.66  2179.69  2337.38  4281.69  4332.17
                             4340.46  4353.51  4361.15  4367.84  4372.77
                             4414.03  4423.74  4446.74  4459.33  4466.37
                             4533.19  4548.47  4558.40  4568.00  4570.21
                             4572.73  4613.79

 Zero-point correction=                           0.306379 (Hartree/Particle)
 Thermal correction to Energy=                    0.324297
 Thermal correction to Enthalpy=                  0.325241
 Thermal correction to Gibbs Free Energy=         0.260440
 Sum of electronic and zero-point Energies=           -880.622178
 Sum of electronic and thermal Energies=              -880.604261
 Sum of electronic and thermal Enthalpies=            -880.603317
 Sum of electronic and thermal Free Energies=         -880.668117

                     E (Thermal)             CV                S
                      KCal/Mol        Cal/Mol-Kelvin    Cal/Mol-Kelvin
 Total                  203.499             65.226            136.384
 Electronic               0.000              0.000              0.000
 Translational            0.889              2.981             42.415
 Rotational               0.889              2.981             32.779
 Vibrational            201.722             59.264             61.190
 Vibration     1          0.595              1.977              4.770
 Vibration     2          0.596              1.975              4.600
 Vibration     3          0.599              1.966              4.033
 Vibration     4          0.600              1.964              3.924
 Vibration     5          0.600              1.961              3.821
 Vibration     6          0.603              1.953              3.557
 Vibration     7          0.606              1.941              3.270
 Vibration     8          0.609              1.933              3.113
 Vibration     9          0.622              1.890              2.539
 Vibration    10          0.626              1.876              2.409
 Vibration    11          0.629              1.866              2.324
 Vibration    12          0.637              1.841              2.141
 Vibration    13          0.651              1.800              1.901
 Vibration    14          0.660              1.771              1.766
 Vibration    15          0.665              1.756              1.702
 Vibration    16          0.679              1.714              1.546
 Vibration    17          0.688              1.686              1.453
 Vibration    18          0.704              1.640              1.322
 Vibration    19          0.711              1.619              1.270
 Vibration    20          0.731              1.564              1.142
 Vibration    21          0.737              1.547              1.106
 Vibration    22          0.761              1.484              0.986
 Vibration    23          0.807              1.366              0.802
 Vibration    24          0.852              1.257              0.666
 Vibration    25          0.874              1.209              0.613
 Vibration    26          0.914              1.122              0.527

 Normal termination of Gaussian 09 at Tue Oct 24 14:09:46 2017.
