 Gaussian 09, Revision D.01,
 Gaussian 09:  EM64L-G09RevD.01 24-Apr-2013

 -------------------------------------------------------------------
 #P PBE1PBE/6-311+G(d,p) opt optcyc=999 freq EmpiricalDispersion=GD3
 -------------------------------------------------------------------

 -------
 disacch
 -------
 Symbolic Z-matrix:
 Charge =  1 Multiplicity = 1

 SCF Done:  E(RPBE1PBE) =  -880.905000302     A.U. after   21 cycles
 SCF Done:  E(RPBE1PBE) =  -880.908351313     A.U. after   20 cycles
 SCF Done:  E(RPBE1PBE) =  -880.907204708     A.U. after   15 cycles
 SCF Done:  E(RPBE1PBE) =  -880.909034188     A.U. after   17 cycles
 SCF Done:  E(RPBE1PBE) =  -880.909265089     A.U. after   13 cycles
 SCF Done:  E(RPBE1PBE) =  -880.909353694     A.U. after   17 cycles
 SCF Done:  E(RPBE1PBE) =  -880.909527502     A.U. after   14 cycles
 SCF Done:  E(RPBE1PBE) =  -880.909601482     A.U. after   15 cycles
 SCF Done:  E(RPBE1PBE) =  -880.909680894     A.U. after   14 cycles
 SCF Done:  E(RPBE1PBE) =  -880.909747373     A.U. after   13 cycles
 SCF Done:  E(RPBE1PBE) =  -880.910308872     A.U. after   14 cycles
 SCF Done:  E(RPBE1PBE) =  -880.910404417     A.U. after   15 cycles
 SCF Done:  E(RPBE1PBE) =  -880.910473415     A.U. after   13 cycles
 SCF Done:  E(RPBE1PBE) =  -880.910500997     A.U. after   13 cycles
 SCF Done:  E(RPBE1PBE) =  -880.910507479     A.U. after   11 cycles
 SCF Done:  E(RPBE1PBE) =  -880.910509644     A.U. after   10 cycles
 SCF Done:  E(RPBE1PBE) =  -880.910510663     A.U. after    9 cycles
 SCF Done:  E(RPBE1PBE) =  -880.910510873     A.U. after    9 cycles
 SCF Done:  E(RPBE1PBE) =  -880.910510914     A.U. after   10 cycles
 Optimization completed.
    -- Stationary point found.
 Normal termination of Gaussian 09 at Tue Oct 24 14:30:11 2017.

 ----------------------------------------------------------------------
 #P Geom=AllCheck Guess=TCheck SCRF=Check GenChk RPBE1PBE/6-311+G(d,p)
 Freq
 ----------------------------------------------------------------------

 Structure from the checkpoint file:  "Ac-4_cGalMe.chk"
 -------
 disacch
 -------
 Charge =  1 Multiplicity = 1

                         Standard orientation:
 ---------------------------------------------------------------------
 Center     Atomic      Atomic             Coordinates (Angstroms)
 Number     Number       Type             X           Y           Z
 ---------------------------------------------------------------------
      1          6           0        2.158798   -1.100247   -1.105543
      2          6           0        0.658331   -0.951541   -1.191389
      3          6           0        0.034105    0.363233   -0.759785
      4          6           0       -1.491763    0.225521   -0.685802
      5          6           0       -1.806066   -0.800934    0.400215
      6          6           0       -0.943565   -2.000588    0.279248
      7          8           0        0.103008   -2.096657   -0.388148
      8          8           0       -2.141463    1.394664   -0.325750
      9          8           0        0.467118    0.779084    0.516779
     10          8           0        2.558168   -1.037839    0.228287
     11          1           0        2.590194   -0.283969   -1.705672
     12          1           0        2.449168   -2.057365   -1.564379
     13          1           0        0.337574   -1.189527   -2.210095
     14          1           0        0.322408    1.101223   -1.516956
     15          1           0       -1.864951   -0.156347   -1.651153
     16          1           0       -1.510859   -0.342371    1.366486
     17          1           0       -1.255351   -2.921040    0.779356
     18          8           0       -3.109597   -1.269785    0.398951
     19          6           0        3.968858   -1.093050    0.369858
     20          1           0        4.181217   -1.079720    1.438269
     21          1           0        4.373307   -2.015549   -0.064374
     22          1           0        4.440398   -0.225622   -0.107725
     23          6           0       -3.988877   -0.625176    1.326754
     24          1           0       -3.672387   -0.820366    2.357274
     25          1           0       -4.018650    0.449916    1.135279
     26          1           0       -4.971157   -1.063741    1.161196
     27          6           0       -2.241653    2.363404   -1.359821
     28          1           0       -1.260711    2.767918   -1.634640
     29          1           0       -2.729122    1.940196   -2.246490
     30          1           0       -2.854414    3.172258   -0.965158
     31          6           0        1.582152    1.576484    0.551589
     32          8           0        2.139542    1.923373   -0.450408
     33          6           0        1.942480    1.913520    1.954865
     34          1           0        2.173091    0.991187    2.493883
     35          1           0        1.095473    2.388551    2.455286
     36          1           0        2.803758    2.577882    1.960793
 ---------------------------------------------------------------------

 SCF Done:  E(RPBE1PBE) =  -880.910510914     A.U. after    2 cycles

 The electronic state is 1-A.
 Alpha  occ. eigenvalues --  -19.50153 -19.38750 -19.37284 -19.35964 -19.34803
 Alpha  occ. eigenvalues --  -19.32164 -10.54765 -10.48281 -10.47884 -10.46491
 Alpha  occ. eigenvalues --  -10.45061 -10.44772 -10.42289 -10.39007 -10.38868
 Alpha  occ. eigenvalues --  -10.37820 -10.34148  -1.37190  -1.28238  -1.24496
 Alpha  occ. eigenvalues --   -1.22256  -1.21362  -1.18907  -1.02403  -1.00511
 Alpha  occ. eigenvalues --   -0.92201  -0.90040  -0.87114  -0.86851  -0.82761
 Alpha  occ. eigenvalues --   -0.81865  -0.79064  -0.77894  -0.74606  -0.72222
 Alpha  occ. eigenvalues --   -0.70588  -0.70055  -0.68646  -0.65695  -0.64665
 Alpha  occ. eigenvalues --   -0.64336  -0.63978  -0.63156  -0.62648  -0.61953
 Alpha  occ. eigenvalues --   -0.60494  -0.59452  -0.58936  -0.58750  -0.57215
 Alpha  occ. eigenvalues --   -0.55964  -0.54310  -0.53982  -0.53706  -0.53247
 Alpha  occ. eigenvalues --   -0.52431  -0.51945  -0.50932  -0.49172  -0.48227
 Alpha  occ. eigenvalues --   -0.47778  -0.45805  -0.43660  -0.42442  -0.42116
 Alpha  occ. eigenvalues --   -0.41029
 Alpha virt. eigenvalues --   -0.26465  -0.12556  -0.11263  -0.10676  -0.10516
 Alpha virt. eigenvalues --   -0.08886  -0.08282  -0.07668  -0.07232  -0.06737
 Alpha virt. eigenvalues --   -0.06178  -0.05611  -0.05420  -0.04968  -0.04127

 Mulliken charges:
               1
     1  C   -0.615425
     2  C   -0.714587
     3  C   -0.148311
     4  C   -0.221765
     5  C   -0.799416
     6  C    0.416295
     7  O    0.235315
     8  O   -0.011378
     9  O    0.314520
    10  O   -0.111183
    11  H    0.231955
    12  H    0.212983
    13  H    0.289885
    14  H    0.286568
    15  H    0.219699
    16  H    0.291791
    17  H    0.247111
    18  O   -0.049397
    19  C   -0.282166
    20  H    0.188777
    21  H    0.167200
    22  H    0.183135
    23  C   -0.338943
    24  H    0.173089
    25  H    0.201210
    26  H    0.197897
    27  C   -0.265616
    28  H    0.186287
    29  H    0.177116
    30  H    0.201654
    31  C    0.325481
    32  O   -0.217823
    33  C   -0.624860
    34  H    0.211135
    35  H    0.212574
    36  H    0.229192
 Sum of Mulliken charges =   1.00000

 Dipole moment (field-independent basis, Debye):
    X=             -1.6672    Y=             -3.2469    Z=             -0.1618  Tot=              3.6535
 Quadrupole moment (field-independent basis, Debye-Ang):
   XX=            -69.5513   YY=            -83.7899   ZZ=            -82.5673
   XY=             -4.8435   XZ=             -0.3384   YZ=              1.2484

  Exact polarizability: 167.716  -1.260 136.656  -4.822  -0.596 129.402
 Approx polarizability: 202.000   1.371 185.387 -13.480  -2.299 191.018

                      1                      2                      3
                      A                      A                      A
 Frequencies --     38.8995                49.8762                61.7452
 Red. masses --      3.6646                 3.3715                 2.9345
 Frc consts  --      0.0033                 0.0049                 0.0066
 IR Inten    --      0.3869                 0.6142                 2.3170

                      4                      5                      6
                      A                      A                      A
 Frequencies --     67.0968                75.7634                83.7804
 Red. masses --      2.6016                 1.5402                 2.0283
 Frc consts  --      0.0069                 0.0052                 0.0084
 IR Inten    --      2.5164                 2.1476                 3.2012

                      7                      8                      9
                      A                      A                      A
 Frequencies --     87.8686                99.4641               127.0570
 Red. masses --      2.2134                 3.2101                 3.0811
 Frc consts  --      0.0101                 0.0187                 0.0293
 IR Inten    --      4.9524                 6.0212                 0.7259

                     10                     11                     12
                      A                      A                      A
 Frequencies --    136.3863               157.7961               166.2157
 Red. masses --      2.4397                 1.5709                 1.9390
 Frc consts  --      0.0267                 0.0230                 0.0316
 IR Inten    --      1.6746                 1.2510                 0.3640

                     13                     14                     15
                      A                      A                      A
 Frequencies --    180.0259               219.6680               221.8350
 Red. masses --      1.6338                 4.0359                 3.6128
 Frc consts  --      0.0312                 0.1147                 0.1048
 IR Inten    --      1.6823                 2.0054                 1.4489

                     16                     17                     18
                      A                      A                      A
 Frequencies --    232.8315               262.9166               287.6907
 Red. masses --      2.2679                 2.6711                 4.4581
 Frc consts  --      0.0724                 0.1088                 0.2174
 IR Inten    --     18.7092                 5.6874                 1.3620

                     19                     20                     21
                      A                      A                      A
 Frequencies --    301.3272               306.8808               356.2778
 Red. masses --      3.7915                 4.3210                 3.4807
 Frc consts  --      0.2028                 0.2398                 0.2603
 IR Inten    --      3.2736                 9.2780                 0.6447

                     22                     23                     24
                      A                      A                      A
 Frequencies --    373.7576               396.8969               442.6410
 Red. masses --      3.9830                 3.4950                 3.7319
 Frc consts  --      0.3278                 0.3244                 0.4308
 IR Inten    --      1.8542                 1.0504                 8.4928

                     25                     26                     27
                      A                      A                      A
 Frequencies --    487.4869               509.7771               570.9675
 Red. masses --      4.3636                 3.1574                 3.4216
 Frc consts  --      0.6110                 0.4834                 0.6572
 IR Inten    --     10.2913                 7.9326                 5.7643

                     28                     29                     30
                      A                      A                      A
 Frequencies --    599.6128               624.8416               667.4579
 Red. masses --      2.9156                 6.2670                 4.6202
 Frc consts  --      0.6176                 1.4416                 1.2127
 IR Inten    --     12.4917                15.7016                 9.9188

                     31                     32                     33
                      A                      A                      A
 Frequencies --    699.9062               766.3241               791.8382
 Red. masses --      4.1402                 3.6252                 4.6880
 Frc consts  --      1.1950                 1.2543                 1.7319
 IR Inten    --     26.5473                25.5485                13.2202

                     34                     35                     36
                      A                      A                      A
 Frequencies --    849.0517               922.6000               939.6538
 Red. masses --      2.2759                 2.5757                 3.2170
 Frc consts  --      0.9666                 1.2917                 1.6735
 IR Inten    --     13.1167                19.3560                55.9793

                     37                     38                     39
                      A                      A                      A
 Frequencies --    967.6524               986.6619              1002.2919
 Red. masses --      3.8213                 1.8134                 4.1486
 Frc consts  --      2.1081                 1.0401                 2.4555
 IR Inten    --     11.3102                 8.5535                27.0474

                     40                     41                     42
                      A                      A                      A
 Frequencies --   1009.1957              1025.8054              1051.5409
 Red. masses --      2.0076                 2.8380                 2.9261
 Frc consts  --      1.2047                 1.7595                 1.9063
 IR Inten    --      9.6756                66.2521                42.4918

                     43                     44                     45
                      A                      A                      A
 Frequencies --   1060.3043              1073.4753              1090.6024
 Red. masses --      1.8517                 2.4370                 2.2548
 Frc consts  --      1.2266                 1.6546                 1.5801
 IR Inten    --     12.9479                 3.8715                63.5635

                     46                     47                     48
                      A                      A                      A
 Frequencies --   1145.9156              1168.5976              1172.0179
 Red. masses --      2.1035                 2.1747                 1.5990
 Frc consts  --      1.6274                 1.7497                 1.2941
 IR Inten    --     35.7259                44.9965                58.9103

                     49                     50                     51
                      A                      A                      A
 Frequencies --   1174.2822              1175.6104              1177.8938
 Red. masses --      1.6942                 1.4492                 1.5247
 Frc consts  --      1.3765                 1.1801                 1.2464
 IR Inten    --     11.2609                13.8517                21.8601

                     52                     53                     54
                      A                      A                      A
 Frequencies --   1183.6872              1189.2404              1225.6688
 Red. masses --      1.6574                 2.1249                 2.2132
 Frc consts  --      1.3682                 1.7706                 1.9590
 IR Inten    --     26.1718               123.0071               190.6244

                     55                     56                     57
                      A                      A                      A
 Frequencies --   1228.2232              1241.8601              1242.4286
 Red. masses --      1.8894                 2.9896                 2.5814
 Frc consts  --      1.6793                 2.7165                 2.3477
 IR Inten    --     17.6140               269.6599                70.6287

                     58                     59                     60
                      A                      A                      A
 Frequencies --   1264.0054              1274.9751              1293.4780
 Red. masses --      1.8561                 1.3662                 1.2997
 Frc consts  --      1.7473                 1.3085                 1.2811
 IR Inten    --     75.9269                23.1115                 2.6318

                     61                     62                     63
                      A                      A                      A
 Frequencies --   1315.7156              1336.2157              1340.5834
 Red. masses --      1.2639                 1.3672                 1.5484
 Frc consts  --      1.2891                 1.4383                 1.6395
 IR Inten    --     58.5074                10.7619                 3.6089

                     64                     65                     66
                      A                      A                      A
 Frequencies --   1377.3335              1384.3966              1400.3086
 Red. masses --      1.3459                 1.6403                 1.5142
 Frc consts  --      1.5044                 1.8522                 1.7494
 IR Inten    --     21.4706                 6.9098                77.4512

                     67                     68                     69
                      A                      A                      A
 Frequencies --   1407.4969              1414.2137              1432.3550
 Red. masses --      1.4657                 1.5183                 1.4048
 Frc consts  --      1.7107                 1.7892                 1.6981
 IR Inten    --     40.9216                29.7762                16.5832

                     70                     71                     72
                      A                      A                      A
 Frequencies --   1461.8130              1466.0480              1472.8276
 Red. masses --      1.0489                 1.0455                 1.1426
 Frc consts  --      1.3206                 1.3239                 1.4603
 IR Inten    --     12.9245                14.2235                 6.5458

                     73                     74                     75
                      A                      A                      A
 Frequencies --   1474.3794              1476.1080              1486.7426
 Red. masses --      1.1473                 1.1290                 1.0450
 Frc consts  --      1.4695                 1.4494                 1.3610
 IR Inten    --      2.4660                 7.1800                14.0145

                     76                     77                     78
                      A                      A                      A
 Frequencies --   1487.2864              1489.1818              1494.2777
 Red. masses --      1.0487                 1.0813                 1.0845
 Frc consts  --      1.3668                 1.4129                 1.4267
 IR Inten    --     14.9541                 8.3054                 4.4751

                     79                     80                     81
                      A                      A                      A
 Frequencies --   1500.1465              1500.6555              1505.9709
 Red. masses --      1.0480                 1.0526                 1.0831
 Frc consts  --      1.3895                 1.3966                 1.4473
 IR Inten    --     15.6102                11.2142                19.0501

                     82                     83                     84
                      A                      A                      A
 Frequencies --   1672.8006              1861.1649              2941.4224
 Red. masses --      8.2278                11.4992                 1.0761
 Frc consts  --     13.5651                23.4686                 5.4853
 IR Inten    --    242.3648               214.3497                22.2061

                     85                     86                     87
                      A                      A                      A
 Frequencies --   2996.8859              3002.9418              3022.7230
 Red. masses --      1.0833                 1.0562                 1.0350
 Frc consts  --      5.7327                 5.6118                 5.5716
 IR Inten    --     17.2125                21.8991                37.7565

                     88                     89                     90
                      A                      A                      A
 Frequencies --   3025.3079              3043.8911              3045.2441
 Red. masses --      1.0356                 1.0358                 1.1063
 Frc consts  --      5.5842                 5.6546                 6.0445
 IR Inten    --     28.0545                28.5022                14.8134

                     91                     92                     93
                      A                      A                      A
 Frequencies --   3076.2714              3081.0731              3093.2540
 Red. masses --      1.0371                 1.0845                 1.1069
 Frc consts  --      5.7823                 6.0655                 6.2399
 IR Inten    --      1.1938                15.2057                22.1172

                     94                     95                     96
                      A                      A                      A
 Frequencies --   3097.3476              3111.2833              3133.6121
 Red. masses --      1.1064                 1.0866                 1.1029
 Frc consts  --      6.2536                 6.1973                 6.3808
 IR Inten    --     20.9148                 1.1791                 8.3179

                     97                     98                     99
                      A                      A                      A
 Frequencies --   3150.8404              3159.8490              3167.9493
 Red. masses --      1.0999                 1.0947                 1.1009
 Frc consts  --      6.4336                 6.4401                 6.5098
 IR Inten    --      0.3299                 2.6821                 7.8615

                    100                    101                    102
                      A                      A                      A
 Frequencies --   3175.1602              3187.7791              3199.5278
 Red. masses --      1.1002                 1.1048                 1.1042
 Frc consts  --      6.5353                 6.6146                 6.6597
 IR Inten    --      4.4432                 3.3642                 0.5194

 - Thermochemistry -
 -------------------
 Temperature   298.150 Kelvin.  Pressure   1.00000 Atm.
 Atom     1 has atomic number  6 and mass  12.00000

 Molecular mass:   247.11816 amu.
 Principal axes and moments of inertia in atomic units:
                           1         2         3
     Eigenvalues --  2585.574605128.245166215.68095
           X            0.99978  -0.02091   0.00136
           Y            0.02091   0.99978  -0.00144
           Z           -0.00133   0.00146   1.00000
 This molecule is an asymmetric top.
 Rotational symmetry number  1.
 Warning -- assumption of classical behavior for rotation
           may cause significant error
 Rotational temperatures (Kelvin)      0.03350     0.01689     0.01393
 Rotational constants (GHZ):           0.69800     0.35192     0.29035
 Zero-point vibrational energy     795875.6 (Joules/Mol)
                                  190.21884 (Kcal/Mol)
 Warning -- explicit consideration of  28 degrees of freedom as
           vibrations may cause significant error
 Vibrational temperatures:     55.97    71.76    88.84    96.54   109.01
          (Kelvin)            120.54   126.42   143.11   182.81   196.23
                              227.03   239.15   259.02   316.05   319.17
                              334.99   378.28   413.92   433.54   441.53
                              512.60   537.75   571.05   636.86   701.38
                              733.45   821.49   862.71   899.01   960.32
                             1007.01  1102.57  1139.28  1221.59  1327.41
                             1351.95  1392.23  1419.58  1442.07  1452.01
                             1475.90  1512.93  1525.54  1544.49  1569.13
                             1648.71  1681.35  1686.27  1689.53  1691.44
                             1694.72  1703.06  1711.05  1763.46  1767.14
                             1786.76  1787.58  1818.62  1834.40  1861.02
                             1893.02  1922.51  1928.80  1981.67  1991.84
                             2014.73  2025.07  2034.74  2060.84  2103.22
                             2109.31  2119.07  2121.30  2123.79  2139.09
                             2139.87  2142.60  2149.93  2158.37  2159.11
                             2166.75  2406.78  2677.80  4232.05  4311.85
                             4320.56  4349.02  4352.74  4379.47  4381.42
                             4426.06  4432.97  4450.50  4456.39  4476.44
                             4508.56  4533.35  4546.31  4557.97  4568.34
                             4586.50  4603.40

 Zero-point correction=                           0.303133 (Hartree/Particle)
 Thermal correction to Energy=                    0.322265
 Thermal correction to Enthalpy=                  0.323209
 Thermal correction to Gibbs Free Energy=         0.254912
 Sum of electronic and zero-point Energies=           -880.607378
 Sum of electronic and thermal Energies=              -880.588246
 Sum of electronic and thermal Enthalpies=            -880.587302
 Sum of electronic and thermal Free Energies=         -880.655599

                     E (Thermal)             CV                S
                      KCal/Mol        Cal/Mol-Kelvin    Cal/Mol-Kelvin
 Total                  202.224             67.673            143.743
 Electronic               0.000              0.000              0.000
 Translational            0.889              2.981             42.415
 Rotational               0.889              2.981             32.777
 Vibrational            200.447             61.711             68.551
 Vibration     1          0.594              1.981              5.314
 Vibration     2          0.595              1.978              4.822
 Vibration     3          0.597              1.973              4.401
 Vibration     4          0.598              1.970              4.237
 Vibration     5          0.599              1.965              3.998
 Vibration     6          0.601              1.960              3.800
 Vibration     7          0.601              1.958              3.707
 Vibration     8          0.604              1.949              3.465
 Vibration     9          0.611              1.926              2.990
 Vibration    10          0.614              1.917              2.854
 Vibration    11          0.621              1.894              2.576
 Vibration    12          0.624              1.884              2.478
 Vibration    13          0.629              1.867              2.328
 Vibration    14          0.647              1.811              1.962
 Vibration    15          0.648              1.808              1.944
 Vibration    16          0.654              1.791              1.857
 Vibration    17          0.670              1.741              1.642
 Vibration    18          0.685              1.697              1.488
 Vibration    19          0.693              1.671              1.410
 Vibration    20          0.697              1.661              1.379
 Vibration    21          0.732              1.562              1.138
 Vibration    22          0.745              1.526              1.064
 Vibration    23          0.763              1.477              0.974
 Vibration    24          0.802              1.377              0.818
 Vibration    25          0.843              1.278              0.690
 Vibration    26          0.865              1.228              0.634
 Vibration    27          0.927              1.094              0.502
 Vibration    28          0.958              1.033              0.450

 Normal termination of Gaussian 09 at Tue Oct 24 14:48:35 2017.
