 Gaussian 09, Revision D.01,
 Gaussian 09:  EM64L-G09RevD.01 24-Apr-2013

 -------------------------------------------------------------------
 #P PBE1PBE/6-311+G(d,p) opt optcyc=999 freq EmpiricalDispersion=GD3
 -------------------------------------------------------------------

 -------
 disacch
 -------
 Symbolic Z-matrix:
 Charge =  1 Multiplicity = 1

 SCF Done:  E(RPBE1PBE) =  -880.912356791     A.U. after   14 cycles
 SCF Done:  E(RPBE1PBE) =  -880.916220742     A.U. after   13 cycles
 SCF Done:  E(RPBE1PBE) =  -880.914193024     A.U. after   16 cycles
 SCF Done:  E(RPBE1PBE) =  -880.916787521     A.U. after   11 cycles
 SCF Done:  E(RPBE1PBE) =  -880.916518477     A.U. after   16 cycles
 SCF Done:  E(RPBE1PBE) =  -880.917088708     A.U. after   12 cycles
 SCF Done:  E(RPBE1PBE) =  -880.917485305     A.U. after   12 cycles
 SCF Done:  E(RPBE1PBE) =  -880.917401122     A.U. after   13 cycles
 SCF Done:  E(RPBE1PBE) =  -880.917673853     A.U. after   13 cycles
 SCF Done:  E(RPBE1PBE) =  -880.917722292     A.U. after   11 cycles
 SCF Done:  E(RPBE1PBE) =  -880.917795907     A.U. after   12 cycles
 SCF Done:  E(RPBE1PBE) =  -880.917798251     A.U. after    9 cycles
 SCF Done:  E(RPBE1PBE) =  -880.917799672     A.U. after   10 cycles
 SCF Done:  E(RPBE1PBE) =  -880.917801151     A.U. after    9 cycles
 SCF Done:  E(RPBE1PBE) =  -880.917802788     A.U. after   10 cycles
 SCF Done:  E(RPBE1PBE) =  -880.917802956     A.U. after   12 cycles
 SCF Done:  E(RPBE1PBE) =  -880.917802371     A.U. after    9 cycles
 SCF Done:  E(RPBE1PBE) =  -880.917801958     A.U. after   12 cycles
 SCF Done:  E(RPBE1PBE) =  -880.917801881     A.U. after    8 cycles
 Optimization completed.
    -- Stationary point found.
 Normal termination of Gaussian 09 at Tue Jan 10 12:01:03 2017.

 ----------------------------------------------------------------------
 #P Geom=AllCheck Guess=TCheck SCRF=Check GenChk RPBE1PBE/6-311+G(d,p)
 Freq
 ----------------------------------------------------------------------

 Structure from the checkpoint file:  "Ac-4_cGalMe.chk"
 -------
 disacch
 -------
 Charge =  1 Multiplicity = 1

                         Standard orientation:
 ---------------------------------------------------------------------
 Center     Atomic      Atomic             Coordinates (Angstroms)
 Number     Number       Type             X           Y           Z
 ---------------------------------------------------------------------
      1          6           0       -0.211108    1.832328    0.236183
      2          6           0       -0.310960    0.990403   -1.038817
      3          6           0       -0.683809   -0.493466   -0.906768
      4          6           0        0.101904   -1.143823    0.227769
      5          6           0        1.595509   -0.785608    0.084754
      6          6           0        1.787160    0.656617   -0.395490
      7          8           0        1.062054    0.998437   -1.486859
      8          8           0       -0.423942   -0.695003    1.448455
      9          8           0       -2.052980   -0.847902   -0.799652
     10          8           0        1.193642    1.564796    0.691531
     11          1           0       -0.850064    1.526021    1.052930
     12          1           0       -0.276521    2.896784    0.015141
     13          1           0       -0.900458    1.494983   -1.798759
     14          1           0       -0.344703   -0.947093   -1.842439
     15          1           0        0.020736   -2.233876    0.137318
     16          1           0        2.083983   -0.908308    1.061723
     17          1           0        2.831860    0.942694   -0.522079
     18          8           0        2.150997   -1.614818   -0.890967
     19          6           0        1.975467    2.747205    1.033844
     20          1           0        2.913696    2.389910    1.454320
     21          1           0        2.131297    3.350298    0.137343
     22          1           0        1.407220    3.287726    1.788431
     23          6           0        3.525208   -1.922699   -0.712939
     24          1           0        4.160646   -1.030150   -0.774391
     25          1           0        3.691601   -2.422650    0.248737
     26          1           0        3.798075   -2.598368   -1.522132
     27          6           0       -0.312453   -1.630208    2.508213
     28          1           0       -0.853841   -2.553002    2.270186
     29          1           0        0.734408   -1.874642    2.728857
     30          1           0       -0.758699   -1.166479    3.387331
     31          6           0       -2.997963    0.019686   -0.381174
     32          8           0       -2.779174    1.185155   -0.167202
     33          6           0       -4.317114   -0.662458   -0.247581
     34          1           0       -4.261407   -1.400771    0.556775
     35          1           0       -4.557831   -1.199706   -1.167203
     36          1           0       -5.085825    0.073454   -0.022508
 ---------------------------------------------------------------------

 SCF Done:  E(RPBE1PBE) =  -880.917801881     A.U. after    1 cycles

 The electronic state is 1-A.
 Alpha  occ. eigenvalues --  -19.49054 -19.40160 -19.37787 -19.35719 -19.35147
 Alpha  occ. eigenvalues --  -19.31424 -10.51503 -10.47785 -10.45749 -10.45180
 Alpha  occ. eigenvalues --  -10.45103 -10.43752 -10.43267 -10.42389 -10.39016
 Alpha  occ. eigenvalues --  -10.38651 -10.33180  -1.35114  -1.27225  -1.26174
 Alpha  occ. eigenvalues --   -1.22522  -1.21328  -1.17982  -0.99846  -0.97939
 Alpha  occ. eigenvalues --   -0.94682  -0.90083  -0.87115  -0.85831  -0.84182
 Alpha  occ. eigenvalues --   -0.82305  -0.80399  -0.76603  -0.74997  -0.73462
 Alpha  occ. eigenvalues --   -0.69878  -0.67366  -0.67006  -0.66686  -0.65557
 Alpha  occ. eigenvalues --   -0.65386  -0.63495  -0.62366  -0.62058  -0.61507
 Alpha  occ. eigenvalues --   -0.60343  -0.59790  -0.59041  -0.58738  -0.58169
 Alpha  occ. eigenvalues --   -0.56574  -0.55403  -0.54870  -0.53591  -0.52371
 Alpha  occ. eigenvalues --   -0.52270  -0.51899  -0.51402  -0.50005  -0.48439
 Alpha  occ. eigenvalues --   -0.47641  -0.46278  -0.44104  -0.42619  -0.41583
 Alpha  occ. eigenvalues --   -0.40893
 Alpha virt. eigenvalues --   -0.13565  -0.11915  -0.10959  -0.10261  -0.09540
 Alpha virt. eigenvalues --   -0.09227  -0.08749  -0.07211  -0.06867  -0.06735
 Alpha virt. eigenvalues --   -0.06527  -0.05956  -0.05466  -0.04936  -0.04092

 Mulliken charges:
               1
     1  C   -0.424181
     2  C   -0.238555
     3  C   -0.511681
     4  C   -0.169951
     5  C   -0.337974
     6  C   -0.646218
     7  O    0.109428
     8  O    0.001904
     9  O    0.173737
    10  O    0.200916
    11  H    0.332472
    12  H    0.261010
    13  H    0.281982
    14  H    0.285208
    15  H    0.249838
    16  H    0.210405
    17  H    0.262329
    18  O    0.053349
    19  C   -0.236675
    20  H    0.221591
    21  H    0.238240
    22  H    0.223751
    23  C   -0.266957
    24  H    0.149991
    25  H    0.174762
    26  H    0.202934
    27  C   -0.261969
    28  H    0.182604
    29  H    0.161825
    30  H    0.197372
    31  C    0.289331
    32  O   -0.206847
    33  C   -0.799627
    34  H    0.206342
    35  H    0.213933
    36  H    0.215379
 Sum of Mulliken charges =   1.00000

 Dipole moment (field-independent basis, Debye):
    X=              4.6840    Y=              2.4950    Z=              2.7349  Tot=              5.9703
 Quadrupole moment (field-independent basis, Debye-Ang):
   XX=            -63.3922   YY=            -75.4891   ZZ=            -90.7387
   XY=             10.3137   XZ=              5.1277   YZ=              1.2071

  Exact polarizability: 160.185   0.050 138.322  -2.149   2.989 121.070
 Approx polarizability: 192.665  -2.406 191.187  -3.145   8.502 175.179

                      1                      2                      3
                      A                      A                      A
 Frequencies --     46.3764                49.3353                58.5068
 Red. masses --      2.8228                 1.4790                 2.4035
 Frc consts  --      0.0036                 0.0021                 0.0048
 IR Inten    --      0.5489                 2.4278                 3.6648

                      4                      5                      6
                      A                      A                      A
 Frequencies --     70.4158                73.2439                83.5884
 Red. masses --      2.6767                 2.9253                 2.7608
 Frc consts  --      0.0078                 0.0092                 0.0114
 IR Inten    --      0.2744                 2.1627                 1.7018

                      7                      8                      9
                      A                      A                      A
 Frequencies --    101.6678               144.7993               153.3161
 Red. masses --      2.9532                 2.3552                 2.4061
 Frc consts  --      0.0180                 0.0291                 0.0333
 IR Inten    --      0.8269                 3.6263                 1.5710

                     10                     11                     12
                      A                      A                      A
 Frequencies --    161.3950               176.9338               203.5052
 Red. masses --      1.3035                 2.2853                 2.6356
 Frc consts  --      0.0200                 0.0422                 0.0643
 IR Inten    --      0.7698                 4.6642                 2.8107

                     13                     14                     15
                      A                      A                      A
 Frequencies --    218.6816               253.5307               265.1841
 Red. masses --      1.5833                 3.4191                 3.5888
 Frc consts  --      0.0446                 0.1295                 0.1487
 IR Inten    --      2.7600                 3.8697                 7.3304

                     16                     17                     18
                      A                      A                      A
 Frequencies --    283.3063               293.1253               310.8953
 Red. masses --      3.2530                 3.9736                 3.5917
 Frc consts  --      0.1538                 0.2012                 0.2045
 IR Inten    --     11.2466                 4.0506                 0.8646

                     19                     20                     21
                      A                      A                      A
 Frequencies --    335.4317               364.9562               400.7685
 Red. masses --      3.2464                 4.5972                 4.1175
 Frc consts  --      0.2152                 0.3608                 0.3896
 IR Inten    --      0.7507                 1.6339                 1.5140

                     22                     23                     24
                      A                      A                      A
 Frequencies --    439.3166               483.2352               499.7152
 Red. masses --      3.5237                 4.5950                 4.4847
 Frc consts  --      0.4007                 0.6322                 0.6598
 IR Inten    --      5.2860                 9.4130                18.7112

                     25                     26                     27
                      A                      A                      A
 Frequencies --    544.6787               594.9804               608.8638
 Red. masses --      4.2630                 2.9617                 4.8058
 Frc consts  --      0.7452                 0.6177                 1.0497
 IR Inten    --      9.7107                 2.0627                32.6138

                     28                     29                     30
                      A                      A                      A
 Frequencies --    635.6945               699.1137               739.8995
 Red. masses --      6.0094                 5.8182                 5.4376
 Frc consts  --      1.4308                 1.6754                 1.7539
 IR Inten    --     32.7925                 8.4741                65.7531

                     31                     32                     33
                      A                      A                      A
 Frequencies --    765.0947               788.5287               837.5480
 Red. masses --      4.2303                 4.6250                 4.8516
 Frc consts  --      1.4590                 1.6943                 2.0052
 IR Inten    --     32.4352                27.5657                40.7445

                     34                     35                     36
                      A                      A                      A
 Frequencies --    886.5841               901.1705               925.6698
 Red. masses --      3.5628                 3.3115                 3.0690
 Frc consts  --      1.6500                 1.5845                 1.5494
 IR Inten    --      8.5439                35.1615                 9.8610

                     37                     38                     39
                      A                      A                      A
 Frequencies --    964.6801               992.3367              1010.2909
 Red. masses --      2.8437                 4.1703                 3.3211
 Frc consts  --      1.5592                 2.4196                 1.9972
 IR Inten    --     10.8677                17.6626                40.5119

                     40                     41                     42
                      A                      A                      A
 Frequencies --   1013.5710              1026.1964              1055.3744
 Red. masses --      2.9851                 2.0380                 3.3821
 Frc consts  --      1.8068                 1.2645                 2.2194
 IR Inten    --     29.4367                33.4614               101.1373

                     43                     44                     45
                      A                      A                      A
 Frequencies --   1061.5692              1077.6658              1082.6096
 Red. masses --      1.8589                 2.4976                 1.9258
 Frc consts  --      1.2342                 1.7090                 1.3299
 IR Inten    --      7.7757                 7.2964                35.8246

                     46                     47                     48
                      A                      A                      A
 Frequencies --   1138.0459              1149.8150              1160.5408
 Red. masses --      3.2295                 3.0894                 2.7000
 Frc consts  --      2.4644                 2.4065                 2.1426
 IR Inten    --     83.1930               134.8321                35.5497

                     49                     50                     51
                      A                      A                      A
 Frequencies --   1170.0740              1174.6862              1176.5616
 Red. masses --      1.3166                 1.3103                 1.3434
 Frc consts  --      1.0620                 1.0653                 1.0957
 IR Inten    --     16.2169                 2.7180                14.0565

                     52                     53                     54
                      A                      A                      A
 Frequencies --   1192.2213              1195.2931              1219.7456
 Red. masses --      1.4021                 1.5527                 2.5509
 Frc consts  --      1.1742                 1.3070                 2.2360
 IR Inten    --     22.9092                16.5185                70.7874

                     55                     56                     57
                      A                      A                      A
 Frequencies --   1222.7161              1228.6507              1243.2012
 Red. masses --      2.4003                 1.8088                 1.3068
 Frc consts  --      2.1143                 1.6088                 1.1900
 IR Inten    --    158.5265                28.3816                27.0189

                     58                     59                     60
                      A                      A                      A
 Frequencies --   1268.1227              1279.0289              1286.8669
 Red. masses --      2.5882                 1.5256                 1.5322
 Frc consts  --      2.4523                 1.4705                 1.4950
 IR Inten    --    247.5363                45.0331                38.7574

                     61                     62                     63
                      A                      A                      A
 Frequencies --   1309.2892              1337.1698              1360.2339
 Red. masses --      1.2582                 1.3545                 1.8005
 Frc consts  --      1.2708                 1.4270                 1.9628
 IR Inten    --     26.5936                 5.8600                23.4744

                     64                     65                     66
                      A                      A                      A
 Frequencies --   1365.9828              1376.4178              1392.1705
 Red. masses --      1.2956                 1.3823                 1.3261
 Frc consts  --      1.4244                 1.5429                 1.5143
 IR Inten    --     17.6625                28.5084                12.9099

                     67                     68                     69
                      A                      A                      A
 Frequencies --   1399.5461              1412.5420              1423.8896
 Red. masses --      1.3727                 1.6409                 1.5638
 Frc consts  --      1.5842                 1.9290                 1.8680
 IR Inten    --     65.6086                24.5713                39.8916

                     70                     71                     72
                      A                      A                      A
 Frequencies --   1432.3846              1460.0550              1461.5515
 Red. masses --      1.5589                 1.0526                 1.1292
 Frc consts  --      1.8845                 1.3221                 1.4212
 IR Inten    --      2.8746                20.0141                 6.3370

                     73                     74                     75
                      A                      A                      A
 Frequencies --   1466.6127              1472.9200              1474.7128
 Red. masses --      1.0465                 1.1166                 1.1276
 Frc consts  --      1.3262                 1.4273                 1.4449
 IR Inten    --     14.0664                 7.7806                 9.2327

                     76                     77                     78
                      A                      A                      A
 Frequencies --   1479.6273              1484.4547              1487.8852
 Red. masses --      1.1182                 1.0565                 1.0481
 Frc consts  --      1.4424                 1.3717                 1.3671
 IR Inten    --      7.1137                11.7232                18.0777

                     79                     80                     81
                      A                      A                      A
 Frequencies --   1489.3935              1493.1327              1498.1235
 Red. masses --      1.0437                 1.0418                 1.0788
 Frc consts  --      1.3641                 1.3684                 1.4265
 IR Inten    --     15.9300                10.2604                 9.5299

                     82                     83                     84
                      A                      A                      A
 Frequencies --   1500.0498              1827.6238              3018.9338
 Red. masses --      1.0650                11.2339                 1.0370
 Frc consts  --      1.4119                22.1082                 5.5683
 IR Inten    --     15.8248               276.2789                33.2868

                     85                     86                     87
                      A                      A                      A
 Frequencies --   3020.8476              3035.7657              3064.0496
 Red. masses --      1.0365                 1.0832                 1.0861
 Frc consts  --      5.5727                 5.8818                 6.0076
 IR Inten    --     32.9863                19.3073                 7.8800

                     88                     89                     90
                      A                      A                      A
 Frequencies --   3077.0734              3079.1065              3088.3928
 Red. masses --      1.0375                 1.0293                 1.1059
 Frc consts  --      5.7879                 5.7498                 6.2146
 IR Inten    --      0.9227                 3.0678                29.5704

                     91                     92                     93
                      A                      A                      A
 Frequencies --   3091.4556              3105.5793              3141.8700
 Red. masses --      1.1049                 1.0858                 1.0665
 Frc consts  --      6.2215                 6.1700                 6.2026
 IR Inten    --     25.7889                 2.8358                 2.5611

                     94                     95                     96
                      A                      A                      A
 Frequencies --   3151.1940              3151.3733              3167.1426
 Red. masses --      1.0992                 1.0918                 1.1009
 Frc consts  --      6.4308                 6.3885                 6.5062
 IR Inten    --      0.2555                 5.5865                 7.2960

                     97                     98                     99
                      A                      A                      A
 Frequencies --   3174.5155              3191.2792              3193.0644
 Red. masses --      1.0998                 1.0906                 1.1096
 Frc consts  --      6.5303                 6.5443                 6.6652
 IR Inten    --      4.4360                 0.4785                 0.2589

                    100                    101                    102
                      A                      A                      A
 Frequencies --   3200.3860              3210.1510              3270.1202
 Red. masses --      1.1045                 1.1104                 1.1067
 Frc consts  --      6.6655                 6.7419                 6.9728
 IR Inten    --      1.0341                 0.2500                 5.0228

 - Thermochemistry -
 -------------------
 Temperature   298.150 Kelvin.  Pressure   1.00000 Atm.
 Atom     1 has atomic number  6 and mass  12.00000

 Molecular mass:   247.11816 amu.
 Principal axes and moments of inertia in atomic units:
                           1         2         3
     Eigenvalues --  2633.363164720.902055452.71305
           X            0.99995   0.01009   0.00218
           Y           -0.01007   0.99993  -0.00672
           Z           -0.00225   0.00669   0.99998
 This molecule is an asymmetric top.
 Rotational symmetry number  1.
 Warning -- assumption of classical behavior for rotation
           may cause significant error
 Rotational temperatures (Kelvin)      0.03289     0.01835     0.01588
 Rotational constants (GHZ):           0.68534     0.38229     0.33098
 Zero-point vibrational energy     805248.2 (Joules/Mol)
                                  192.45894 (Kcal/Mol)
 Warning -- explicit consideration of  27 degrees of freedom as
           vibrations may cause significant error
 Vibrational temperatures:     66.73    70.98    84.18   101.31   105.38
          (Kelvin)            120.26   146.28   208.33   220.59   232.21
                              254.57   292.80   314.63   364.77   381.54
                              407.61   421.74   447.31   482.61   525.09
                              576.62   632.08   695.27   718.98   783.67
                              856.04   876.02   914.62  1005.87  1064.55
                             1100.80  1134.52  1205.04  1275.60  1296.58
                             1331.83  1387.96  1427.75  1453.58  1458.30
                             1476.47  1518.45  1527.36  1550.52  1557.63
                             1637.39  1654.33  1669.76  1683.47  1690.11
                             1692.81  1715.34  1719.76  1754.94  1759.21
                             1767.75  1788.69  1824.54  1840.24  1851.51
                             1883.77  1923.89  1957.07  1965.34  1980.36
                             2003.02  2013.63  2032.33  2048.66  2060.88
                             2100.69  2102.84  2110.13  2119.20  2121.78
                             2128.85  2135.80  2140.73  2142.90  2148.28
                             2155.46  2158.23  2629.54  4343.57  4346.32
                             4367.78  4408.48  4427.22  4430.14  4443.50
                             4447.91  4468.23  4520.44  4533.86  4534.12
                             4556.81  4567.41  4591.53  4594.10  4604.64
                             4618.69  4704.97

 Zero-point correction=                           0.306703 (Hartree/Particle)
 Thermal correction to Energy=                    0.324651
 Thermal correction to Enthalpy=                  0.325595
 Thermal correction to Gibbs Free Energy=         0.260312
 Sum of electronic and zero-point Energies=           -880.611099
 Sum of electronic and thermal Energies=              -880.593151
 Sum of electronic and thermal Enthalpies=            -880.592207
 Sum of electronic and thermal Free Energies=         -880.657490

                     E (Thermal)             CV                S
                      KCal/Mol        Cal/Mol-Kelvin    Cal/Mol-Kelvin
 Total                  203.721             65.501            137.398
 Electronic               0.000              0.000              0.000
 Translational            0.889              2.981             42.415
 Rotational               0.889              2.981             32.583
 Vibrational            201.944             59.539             62.400
 Vibration     1          0.595              1.979              4.966
 Vibration     2          0.595              1.978              4.844
 Vibration     3          0.596              1.974              4.507
 Vibration     4          0.598              1.968              4.142
 Vibration     5          0.599              1.967              4.064
 Vibration     6          0.600              1.960              3.805
 Vibration     7          0.604              1.948              3.422
 Vibration     8          0.616              1.908              2.739
 Vibration     9          0.619              1.899              2.631
 Vibration    10          0.622              1.890              2.533
 Vibration    11          0.628              1.871              2.361
 Vibration    12          0.639              1.835              2.101
 Vibration    13          0.646              1.813              1.970
 Vibration    14          0.665              1.757              1.706
 Vibration    15          0.671              1.737              1.627
 Vibration    16          0.682              1.705              1.514
 Vibration    17          0.688              1.687              1.456
 Vibration    18          0.700              1.653              1.358
 Vibration    19          0.717              1.605              1.234
 Vibration    20          0.738              1.544              1.101
 Vibration    21          0.767              1.468              0.960
 Vibration    22          0.799              1.384              0.829
 Vibration    23          0.839              1.287              0.701
 Vibration    24          0.855              1.251              0.659
 Vibration    25          0.900              1.151              0.555
 Vibration    26          0.953              1.042              0.458
 Vibration    27          0.968              1.013              0.435

 Optimization completed.
    -- Stationary point found.
 Normal termination of Gaussian 09 at Tue Jan 10 12:29:38 2017.
