 Gaussian 09, Revision D.01,
 Gaussian 09:  EM64L-G09RevD.01 24-Apr-2013

 -------------------------------------------------------------------
 #P PBE1PBE/6-311+G(d,p) opt optcyc=999 freq EmpiricalDispersion=GD3
 -------------------------------------------------------------------

 -------
 disacch
 -------
 Symbolic Z-matrix:
 Charge =  1 Multiplicity = 1

 SCF Done:  E(RPBE1PBE) =  -880.932294447     A.U. after   15 cycles
 SCF Done:  E(RPBE1PBE) =  -880.932305928     A.U. after   13 cycles
 SCF Done:  E(RPBE1PBE) =  -880.932372688     A.U. after   12 cycles
 SCF Done:  E(RPBE1PBE) =  -880.932454243     A.U. after   14 cycles
 SCF Done:  E(RPBE1PBE) =  -880.932597342     A.U. after   18 cycles
 SCF Done:  E(RPBE1PBE) =  -880.916585968     A.U. after   17 cycles
 SCF Done:  E(RPBE1PBE) =  -880.932746769     A.U. after   17 cycles
 SCF Done:  E(RPBE1PBE) =  -880.932919049     A.U. after   15 cycles
 SCF Done:  E(RPBE1PBE) =  -880.932996275     A.U. after   13 cycles
 SCF Done:  E(RPBE1PBE) =  -880.933026209     A.U. after   10 cycles
 SCF Done:  E(RPBE1PBE) =  -880.933039972     A.U. after   14 cycles
 SCF Done:  E(RPBE1PBE) =  -880.933040304     A.U. after   10 cycles
 SCF Done:  E(RPBE1PBE) =  -880.933040779     A.U. after   13 cycles
 SCF Done:  E(RPBE1PBE) =  -880.933041259     A.U. after   13 cycles
 SCF Done:  E(RPBE1PBE) =  -880.933041846     A.U. after   15 cycles
 SCF Done:  E(RPBE1PBE) =  -880.933042022     A.U. after   15 cycles
 SCF Done:  E(RPBE1PBE) =  -880.933042118     A.U. after   14 cycles
 SCF Done:  E(RPBE1PBE) =  -880.933042142     A.U. after   14 cycles
 SCF Done:  E(RPBE1PBE) =  -880.933042174     A.U. after   13 cycles
 Optimization completed.
    -- Stationary point found.
 Normal termination of Gaussian 09 at Thu Jul  6 17:57:32 2017.

 ----------------------------------------------------------------------
 #P Geom=AllCheck Guess=TCheck SCRF=Check GenChk RPBE1PBE/6-311+G(d,p)
 Freq
 ----------------------------------------------------------------------

 Structure from the checkpoint file:  "Ac-4_cGalMe.chk"
 -------
 disacch
 -------
 Charge =  1 Multiplicity = 1

                         Standard orientation:
 ---------------------------------------------------------------------
 Center     Atomic      Atomic             Coordinates (Angstroms)
 Number     Number       Type             X           Y           Z
 ---------------------------------------------------------------------
      1          6           0        2.207722   -1.384114   -0.910813
      2          6           0        0.735436   -1.138959   -0.683713
      3          6           0        0.213326    0.217791   -1.117267
      4          6           0       -1.305024    0.295855   -0.963326
      5          6           0       -1.754983   -0.472859    0.296336
      6          6           0       -0.558659   -0.639208    1.232892
      7          8           0        0.479170   -1.327991    0.719992
      8          8           0       -1.661012    1.643660   -0.940491
      9          8           0        0.837110    1.296368   -0.348323
     10          8           0        2.955812   -0.384977   -0.283313
     11          1           0        2.395815   -1.409036   -1.996436
     12          1           0        2.448658   -2.379014   -0.507456
     13          1           0        0.163927   -1.891541   -1.242333
     14          1           0        0.516390    0.450452   -2.136920
     15          1           0       -1.743309   -0.233356   -1.821772
     16          1           0       -2.533220    0.100477    0.819572
     17          1           0       -0.802375   -1.050838    2.209814
     18          8           0       -2.213589   -1.721442   -0.122930
     19          6           0        4.348810   -0.623025   -0.357589
     20          1           0        4.844123    0.205197    0.148406
     21          1           0        4.615987   -1.562189    0.143011
     22          1           0        4.689708   -0.661099   -1.400052
     23          6           0       -2.886772   -2.487480    0.866769
     24          1           0       -2.195027   -2.878379    1.621611
     25          1           0       -3.669364   -1.893697    1.354662
     26          1           0       -3.346286   -3.326925    0.347164
     27          6           0       -3.014835    1.892846   -1.293499
     28          1           0       -3.215924    1.553360   -2.315840
     29          1           0       -3.712586    1.400203   -0.605917
     30          1           0       -3.158346    2.970522   -1.233774
     31          6           0        0.579706    1.515132    0.877899
     32          8           0       -0.115079    0.762112    1.636233
     33          6           0        1.171056    2.728672    1.468737
     34          1           0        1.132387    3.548595    0.751728
     35          1           0        2.224422    2.505465    1.675330
     36          1           0        0.671026    2.982057    2.401317
 ---------------------------------------------------------------------

 SCF Done:  E(RPBE1PBE) =  -880.933042175     A.U. after    2 cycles

 The electronic state is 1-A.
 Alpha  occ. eigenvalues --  -19.44877 -19.44403 -19.39276 -19.35931 -19.35849
 Alpha  occ. eigenvalues --  -19.33500 -10.56751 -10.50358 -10.46200 -10.44167
 Alpha  occ. eigenvalues --  -10.43840 -10.43591 -10.40439 -10.38844 -10.38789
 Alpha  occ. eigenvalues --  -10.38331 -10.37003  -1.36830  -1.29013  -1.26294
 Alpha  occ. eigenvalues --   -1.22866  -1.21683  -1.19884  -1.01700  -0.98550
 Alpha  occ. eigenvalues --   -0.95000  -0.90172  -0.88120  -0.85961  -0.83202
 Alpha  occ. eigenvalues --   -0.81128  -0.79103  -0.77668  -0.76971  -0.72813
 Alpha  occ. eigenvalues --   -0.71764  -0.68043  -0.67228  -0.66447  -0.66050
 Alpha  occ. eigenvalues --   -0.64184  -0.63901  -0.63177  -0.62088  -0.61002
 Alpha  occ. eigenvalues --   -0.60602  -0.59772  -0.58595  -0.57916  -0.57477
 Alpha  occ. eigenvalues --   -0.56929  -0.56601  -0.55346  -0.54659  -0.53759
 Alpha  occ. eigenvalues --   -0.52856  -0.52476  -0.51813  -0.48939  -0.48147
 Alpha  occ. eigenvalues --   -0.47549  -0.46474  -0.45840  -0.42680  -0.41563
 Alpha  occ. eigenvalues --   -0.39924
 Alpha virt. eigenvalues --   -0.19342  -0.11302  -0.09977  -0.09625  -0.08807
 Alpha virt. eigenvalues --   -0.08225  -0.07655  -0.06694  -0.06353  -0.06234
 Alpha virt. eigenvalues --   -0.05867  -0.05350  -0.05153  -0.04532  -0.04091

 Mulliken charges:
               1
     1  C   -0.872657
     2  C   -0.032271
     3  C    0.098034
     4  C   -0.488847
     5  C   -0.182855
     6  C   -0.266481
     7  O    0.090460
     8  O    0.029801
     9  O    0.333538
    10  O   -0.132152
    11  H    0.195871
    12  H    0.210602
    13  H    0.272377
    14  H    0.245726
    15  H    0.258206
    16  H    0.237219
    17  H    0.269247
    18  O    0.048325
    19  C   -0.268620
    20  H    0.178849
    21  H    0.169112
    22  H    0.165842
    23  C   -0.287577
    24  H    0.174495
    25  H    0.173332
    26  H    0.203043
    27  C   -0.275275
    28  H    0.179381
    29  H    0.165918
    30  H    0.198725
    31  C    0.067217
    32  O    0.292188
    33  C   -1.161444
    34  H    0.238157
    35  H    0.243493
    36  H    0.229020
 Sum of Mulliken charges =   1.00000

 Dipole moment (field-independent basis, Debye):
    X=             -0.5887    Y=              1.0582    Z=              0.4793  Tot=              1.3023
 Quadrupole moment (field-independent basis, Debye-Ang):
   XX=            -65.8618   YY=            -79.0894   ZZ=            -85.6254
   XY=              1.7167   XZ=             -2.0748   YZ=              3.8683

  Exact polarizability: 152.780   5.066 143.385  -0.721   3.360 126.120
 Approx polarizability: 180.938   7.292 190.662  -4.599   5.431 187.455

                      1                      2                      3
                      A                      A                      A
 Frequencies --     41.5616                46.7541                59.0835
 Red. masses --      4.0566                 3.2073                 1.1852
 Frc consts  --      0.0041                 0.0041                 0.0024
 IR Inten    --      1.6520                 0.3492                 1.7923

                      4                      5                      6
                      A                      A                      A
 Frequencies --     72.3673                80.0673               100.1502
 Red. masses --      2.1721                 3.4970                 2.3775
 Frc consts  --      0.0067                 0.0132                 0.0141
 IR Inten    --      3.3966                 1.6507                 1.3807

                      7                      8                      9
                      A                      A                      A
 Frequencies --    106.9536               114.4502               159.9262
 Red. masses --      2.3087                 2.0333                 1.5861
 Frc consts  --      0.0156                 0.0157                 0.0239
 IR Inten    --      1.7340                 5.7656                 0.7383

                     10                     11                     12
                      A                      A                      A
 Frequencies --    168.3978               186.4472               201.1045
 Red. masses --      2.7635                 1.9795                 1.9264
 Frc consts  --      0.0462                 0.0405                 0.0459
 IR Inten    --      0.6111                 1.8498                 0.5777

                     13                     14                     15
                      A                      A                      A
 Frequencies --    224.4294               240.4937               255.5730
 Red. masses --      1.7714                 3.6352                 2.6512
 Frc consts  --      0.0526                 0.1239                 0.1020
 IR Inten    --      5.7847                 5.8371                 0.9839

                     16                     17                     18
                      A                      A                      A
 Frequencies --    290.7816               303.1238               321.5019
 Red. masses --      4.0226                 3.6047                 4.8749
 Frc consts  --      0.2004                 0.1951                 0.2969
 IR Inten    --      4.6357                 0.3869                 0.6239

                     19                     20                     21
                      A                      A                      A
 Frequencies --    328.7819               351.3082               364.8098
 Red. masses --      4.5274                 3.1275                 4.7991
 Frc consts  --      0.2883                 0.2274                 0.3763
 IR Inten    --      6.0400                 2.6870                 0.3685

                     22                     23                     24
                      A                      A                      A
 Frequencies --    403.4082               449.2343               495.4329
 Red. masses --      4.9176                 5.1922                 3.6159
 Frc consts  --      0.4715                 0.6174                 0.5229
 IR Inten    --      5.9816                 4.8209                10.4563

                     25                     26                     27
                      A                      A                      A
 Frequencies --    509.6058               612.2029               626.8036
 Red. masses --      4.6074                 3.5313                 4.4687
 Frc consts  --      0.7050                 0.7798                 1.0344
 IR Inten    --      5.7574                 4.7241                 0.6570

                     28                     29                     30
                      A                      A                      A
 Frequencies --    664.5756               745.2427               752.9396
 Red. masses --      5.3392                 5.5756                 5.8446
 Frc consts  --      1.3894                 1.8245                 1.9522
 IR Inten    --     28.2355               103.2096                28.9761

                     31                     32                     33
                      A                      A                      A
 Frequencies --    790.7359               823.3758               858.7689
 Red. masses --      4.9868                 6.4167                 3.3477
 Frc consts  --      1.8371                 2.5630                 1.4546
 IR Inten    --     30.4083                17.3466                 3.9114

                     34                     35                     36
                      A                      A                      A
 Frequencies --    895.3456               931.8414               957.9159
 Red. masses --      3.1826                 2.9934                 3.5309
 Frc consts  --      1.5032                 1.5315                 1.9089
 IR Inten    --      0.5370                16.4592                 4.6432

                     37                     38                     39
                      A                      A                      A
 Frequencies --    989.1883              1003.2860              1009.8257
 Red. masses --      2.5036                 4.2669                 2.5583
 Frc consts  --      1.4434                 2.5305                 1.5371
 IR Inten    --      6.3903                32.8454                34.2103

                     40                     41                     42
                      A                      A                      A
 Frequencies --   1035.7552              1050.9654              1052.4744
 Red. masses --      2.5844                 2.1915                 1.7332
 Frc consts  --      1.6335                 1.4261                 1.1312
 IR Inten    --     27.8984                37.8275                 2.5271

                     43                     44                     45
                      A                      A                      A
 Frequencies --   1078.5933              1091.2103              1116.1307
 Red. masses --      2.6568                 3.1436                 1.8254
 Frc consts  --      1.8210                 2.2054                 1.3398
 IR Inten    --     26.0846                92.4389                41.1801

                     46                     47                     48
                      A                      A                      A
 Frequencies --   1146.6032              1164.3938              1173.3816
 Red. masses --      2.1631                 2.4242                 1.4384
 Frc consts  --      1.6755                 1.9365                 1.1668
 IR Inten    --     59.3005                88.7557                26.1160

                     49                     50                     51
                      A                      A                      A
 Frequencies --   1174.9878              1178.6775              1181.3617
 Red. masses --      1.3666                 1.3877                 1.9625
 Frc consts  --      1.1116                 1.1359                 1.6137
 IR Inten    --     10.9746                12.8324                56.1146

                     52                     53                     54
                      A                      A                      A
 Frequencies --   1191.4268              1225.7499              1232.3236
 Red. masses --      2.0116                 2.1592                 2.6476
 Frc consts  --      1.6823                 1.9114                 2.3689
 IR Inten    --     81.9245               102.2049                38.6091

                     55                     56                     57
                      A                      A                      A
 Frequencies --   1236.5952              1237.5641              1272.5381
 Red. masses --      2.4563                 2.2688                 1.3962
 Frc consts  --      2.2130                 2.0473                 1.3321
 IR Inten    --     44.1027                64.3465                13.9337

                     58                     59                     60
                      A                      A                      A
 Frequencies --   1293.5056              1313.9484              1319.3178
 Red. masses --      1.2197                 1.4373                 1.2444
 Frc consts  --      1.2024                 1.4620                 1.2762
 IR Inten    --      7.4424                13.2883                12.3970

                     61                     62                     63
                      A                      A                      A
 Frequencies --   1332.8198              1354.3774              1363.6551
 Red. masses --      1.5189                 1.2613                 1.2991
 Frc consts  --      1.5897                 1.3632                 1.4233
 IR Inten    --     20.1766                25.0239                24.8692

                     64                     65                     66
                      A                      A                      A
 Frequencies --   1383.2605              1390.1590              1402.0014
 Red. masses --      1.2909                 1.6403                 1.3190
 Frc consts  --      1.4553                 1.8677                 1.5276
 IR Inten    --     13.1356                23.1724                12.1055

                     67                     68                     69
                      A                      A                      A
 Frequencies --   1418.6420              1426.8491              1437.2131
 Red. masses --      1.6386                 1.5333                 1.4150
 Frc consts  --      1.9429                 1.8392                 1.7220
 IR Inten    --     12.4469                 7.8160                47.0910

                     70                     71                     72
                      A                      A                      A
 Frequencies --   1440.3457              1453.5417              1472.9770
 Red. masses --      1.3119                 1.1811                 1.1165
 Frc consts  --      1.6035                 1.4703                 1.4273
 IR Inten    --     23.7367                59.4328                 6.6012

                     73                     74                     75
                      A                      A                      A
 Frequencies --   1477.4936              1478.1617              1486.2231
 Red. masses --      1.1425                 1.1534                 1.0416
 Frc consts  --      1.4695                 1.4849                 1.3555
 IR Inten    --      4.8181                 3.8205                13.4220

                     76                     77                     78
                      A                      A                      A
 Frequencies --   1490.1135              1491.1316              1492.5826
 Red. masses --      1.0483                 1.0765                 1.0693
 Frc consts  --      1.3715                 1.4102                 1.4035
 IR Inten    --     11.3405                 9.2782                16.3296

                     79                     80                     81
                      A                      A                      A
 Frequencies --   1499.6290              1503.3947              1510.8774
 Red. masses --      1.0686                 1.0484                 1.0946
 Frc consts  --      1.4160                 1.3961                 1.4722
 IR Inten    --     10.1713                20.9471                 6.8148

                     82                     83                     84
                      A                      A                      A
 Frequencies --   1522.4258              1632.9034              2995.2039
 Red. masses --      3.9419                 5.5259                 1.0588
 Frc consts  --      5.3831                 8.6811                 5.5963
 IR Inten    --    284.0283               301.3814                27.2753

                     85                     86                     87
                      A                      A                      A
 Frequencies --   3017.7351              3025.1431              3027.2842
 Red. masses --      1.0356                 1.0356                 1.0383
 Frc consts  --      5.5567                 5.5840                 5.6063
 IR Inten    --     51.9570                28.6190                26.4218

                     88                     89                     90
                      A                      A                      A
 Frequencies --   3034.8846              3035.8627              3039.6652
 Red. masses --      1.0826                 1.0832                 1.1032
 Frc consts  --      5.8747                 5.8819                 6.0055
 IR Inten    --      3.0548                21.2425                21.0600

                     91                     92                     93
                      A                      A                      A
 Frequencies --   3066.6368              3067.4888              3084.0651
 Red. masses --      1.0836                 1.0436                 1.1063
 Frc consts  --      6.0040                 5.7856                 6.1999
 IR Inten    --      8.4352                14.3459                26.0514

                     94                     95                     96
                      A                      A                      A
 Frequencies --   3097.2355              3098.7559              3154.7342
 Red. masses --      1.1067                 1.1061                 1.0911
 Frc consts  --      6.2551                 6.2580                 6.3978
 IR Inten    --     25.5369                24.2691                 3.2770

                     97                     98                     99
                      A                      A                      A
 Frequencies --   3162.2990              3162.9528              3172.8828
 Red. masses --      1.0893                 1.1002                 1.0999
 Frc consts  --      6.4178                 6.4849                 6.5240
 IR Inten    --      0.7588                11.5861                 5.6774

                    100                    101                    102
                      A                      A                      A
 Frequencies --   3175.7682              3178.2896              3207.6273
 Red. masses --      1.1013                 1.0917                 1.1071
 Frc consts  --      6.5439                 6.4972                 6.7115
 IR Inten    --      5.9028                 2.6480                 1.9830

 - Thermochemistry -
 -------------------
 Temperature   298.150 Kelvin.  Pressure   1.00000 Atm.
 Atom     1 has atomic number  6 and mass  12.00000

 Molecular mass:   247.11816 amu.
 Principal axes and moments of inertia in atomic units:
                           1         2         3
     Eigenvalues --  2720.859784495.593065516.88688
           X            0.99999  -0.00231  -0.00393
           Y            0.00234   0.99998   0.00646
           Z            0.00391  -0.00647   0.99997
 This molecule is an asymmetric top.
 Rotational symmetry number  1.
 Warning -- assumption of classical behavior for rotation
           may cause significant error
 Rotational temperatures (Kelvin)      0.03183     0.01927     0.01570
 Rotational constants (GHZ):           0.66330     0.40145     0.32713
 Zero-point vibrational energy     804910.9 (Joules/Mol)
                                  192.37832 (Kcal/Mol)
 Warning -- explicit consideration of  26 degrees of freedom as
           vibrations may cause significant error
 Vibrational temperatures:     59.80    67.27    85.01   104.12   115.20
          (Kelvin)            144.09   153.88   164.67   230.10   242.29
                              268.26   289.34   322.90   346.02   367.71
                              418.37   436.13   462.57   473.04   505.45
                              524.88   580.41   646.35   712.82   733.21
                              880.82   901.83   956.17  1072.24  1083.31
                             1137.69  1184.65  1235.58  1288.20  1340.71
                             1378.23  1423.22  1443.50  1452.91  1490.22
                             1512.10  1514.27  1551.85  1570.01  1605.86
                             1649.70  1675.30  1688.23  1690.54  1695.85
                             1699.71  1714.20  1763.58  1773.04  1779.18
                             1780.58  1830.90  1861.06  1890.48  1898.20
                             1917.63  1948.64  1961.99  1990.20  2000.13
                             2017.16  2041.11  2052.92  2067.83  2072.33
                             2091.32  2119.28  2125.78  2126.74  2138.34
                             2143.94  2145.40  2147.49  2157.63  2163.05
                             2173.81  2190.43  2349.38  4309.42  4341.84
                             4352.50  4355.58  4366.52  4367.92  4373.39
                             4412.20  4413.43  4437.28  4456.23  4458.41
                             4538.95  4549.84  4550.78  4565.06  4569.22
                             4572.84  4615.05

 Zero-point correction=                           0.306574 (Hartree/Particle)
 Thermal correction to Energy=                    0.324504
 Thermal correction to Enthalpy=                  0.325449
 Thermal correction to Gibbs Free Energy=         0.260179
 Sum of electronic and zero-point Energies=           -880.626468
 Sum of electronic and thermal Energies=              -880.608538
 Sum of electronic and thermal Enthalpies=            -880.607594
 Sum of electronic and thermal Free Energies=         -880.672864

                     E (Thermal)             CV                S
                      KCal/Mol        Cal/Mol-Kelvin    Cal/Mol-Kelvin
 Total                  203.630             65.015            137.372
 Electronic               0.000              0.000              0.000
 Translational            0.889              2.981             42.415
 Rotational               0.889              2.981             32.579
 Vibrational            201.852             59.053             62.379
 Vibration     1          0.594              1.981              5.183
 Vibration     2          0.595              1.979              4.950
 Vibration     3          0.596              1.974              4.488
 Vibration     4          0.598              1.967              4.088
 Vibration     5          0.600              1.963              3.889
 Vibration     6          0.604              1.949              3.451
 Vibration     7          0.606              1.944              3.323
 Vibration     8          0.607              1.937              3.192
 Vibration     9          0.622              1.891              2.551
 Vibration    10          0.625              1.881              2.453
 Vibration    11          0.632              1.858              2.263
 Vibration    12          0.638              1.838              2.123
 Vibration    13          0.649              1.804              1.923
 Vibration    14          0.658              1.778              1.799
 Vibration    15          0.666              1.753              1.692
 Vibration    16          0.687              1.691              1.469
 Vibration    17          0.695              1.668              1.400
 Vibration    18          0.707              1.632              1.302
 Vibration    19          0.712              1.618              1.266
 Vibration    20          0.728              1.573              1.160
 Vibration    21          0.738              1.545              1.102
 Vibration    22          0.769              1.463              0.950
 Vibration    23          0.808              1.363              0.798
 Vibration    24          0.851              1.260              0.670
 Vibration    25          0.865              1.229              0.635
 Vibration    26          0.971              1.006              0.429

 Optimization completed.
    -- Stationary point found.
 Normal termination of Gaussian 09 at Thu Jul  6 18:11:49 2017.
