 Gaussian 09, Revision D.01,
 Gaussian 09:  EM64L-G09RevD.01 24-Apr-2013

 -------------------------------------------------------------------
 #P PBE1PBE/6-311+G(d,p) opt optcyc=999 freq EmpiricalDispersion=GD3
 -------------------------------------------------------------------

 -------
 disacch
 -------
 Symbolic Z-matrix:
 Charge =  1 Multiplicity = 1

 SCF Done:  E(RPBE1PBE) =  -880.925386299     A.U. after   17 cycles
 SCF Done:  E(RPBE1PBE) =  -880.929704635     A.U. after   14 cycles
 SCF Done:  E(RPBE1PBE) =  -880.930261554     A.U. after   12 cycles
 SCF Done:  E(RPBE1PBE) =  -880.930499990     A.U. after   12 cycles
 SCF Done:  E(RPBE1PBE) =  -880.930590316     A.U. after   13 cycles
 SCF Done:  E(RPBE1PBE) =  -880.930629049     A.U. after   12 cycles
 SCF Done:  E(RPBE1PBE) =  -880.930636404     A.U. after   15 cycles
 SCF Done:  E(RPBE1PBE) =  -880.930637595     A.U. after   14 cycles
 SCF Done:  E(RPBE1PBE) =  -880.930638816     A.U. after   14 cycles
 SCF Done:  E(RPBE1PBE) =  -880.930639530     A.U. after   10 cycles
 SCF Done:  E(RPBE1PBE) =  -880.930640196     A.U. after   11 cycles
 SCF Done:  E(RPBE1PBE) =  -880.930640856     A.U. after    9 cycles
 SCF Done:  E(RPBE1PBE) =  -880.930641063     A.U. after   15 cycles
 SCF Done:  E(RPBE1PBE) =  -880.930641130     A.U. after    8 cycles
 SCF Done:  E(RPBE1PBE) =  -880.930641064     A.U. after   14 cycles
 SCF Done:  E(RPBE1PBE) =  -880.930641020     A.U. after   13 cycles
 Optimization completed.
    -- Stationary point found.
 Normal termination of Gaussian 09 at Tue Oct 24 14:31:27 2017.

 ----------------------------------------------------------------------
 #P Geom=AllCheck Guess=TCheck SCRF=Check GenChk RPBE1PBE/6-311+G(d,p)
 Freq
 ----------------------------------------------------------------------

 Structure from the checkpoint file:  "Ac-4_cGalMe.chk"
 -------
 disacch
 -------
 Charge =  1 Multiplicity = 1

                         Standard orientation:
 ---------------------------------------------------------------------
 Center     Atomic      Atomic             Coordinates (Angstroms)
 Number     Number       Type             X           Y           Z
 ---------------------------------------------------------------------
      1          6           0        2.499129   -0.513641   -0.747204
      2          6           0        1.287916    0.273494   -0.263717
      3          6           0        0.365137   -0.540222    0.610815
      4          6           0       -0.794855    0.312025    1.158329
      5          6           0       -1.180843    1.385485    0.131401
      6          6           0       -0.755037    0.912319   -1.258897
      7          8           0        0.571406    0.727208   -1.424468
      8          8           0       -1.931447   -0.450723    1.434206
      9          8           0       -0.193974   -1.664054   -0.159666
     10          8           0        3.237759   -0.945669    0.359297
     11          1           0        3.085293    0.115349   -1.428003
     12          1           0        2.167959   -1.394819   -1.305901
     13          1           0        1.607810    1.145751    0.317917
     14          1           0        0.939776   -1.041802    1.388252
     15          1           0       -0.424074    0.838025    2.048796
     16          1           0       -2.271254    1.512742    0.153360
     17          1           0       -1.135477    1.508919   -2.084749
     18          8           0       -0.499529    2.553806    0.468757
     19          6           0        4.311571   -0.090926    0.715403
     20          1           0        4.786908   -0.530978    1.591541
     21          1           0        5.045630   -0.026622   -0.096088
     22          1           0        3.966541    0.920224    0.969028
     23          6           0       -0.944609    3.726072   -0.201820
     24          1           0       -0.668296    3.719228   -1.262449
     25          1           0       -2.030151    3.843123   -0.102328
     26          1           0       -0.447639    4.564899    0.282943
     27          6           0       -1.812519   -1.286094    2.578961
     28          1           0       -1.089090   -2.094193    2.416245
     29          1           0       -1.517258   -0.701027    3.457084
     30          1           0       -2.797246   -1.717955    2.751840
     31          6           0       -1.152780   -1.504212   -0.993974
     32          8           0       -1.506248   -0.395401   -1.504870
     33          6           0       -1.886911   -2.714809   -1.403698
     34          1           0       -2.742394   -2.813212   -0.724686
     35          1           0       -1.255475   -3.595557   -1.292081
     36          1           0       -2.262487   -2.610362   -2.420365
 ---------------------------------------------------------------------

 SCF Done:  E(RPBE1PBE) =  -880.930641020     A.U. after    3 cycles

 The electronic state is 1-A.
 Alpha  occ. eigenvalues --  -19.45682 -19.45120 -19.39929 -19.36745 -19.35988
 Alpha  occ. eigenvalues --  -19.33393 -10.57663 -10.50855 -10.45945 -10.44198
 Alpha  occ. eigenvalues --  -10.43857 -10.43807 -10.40171 -10.39529 -10.39150
 Alpha  occ. eigenvalues --  -10.38861 -10.37033  -1.37459  -1.29517  -1.26848
 Alpha  occ. eigenvalues --   -1.23368  -1.22000  -1.19726  -1.01816  -0.98730
 Alpha  occ. eigenvalues --   -0.95756  -0.89501  -0.89007  -0.86239  -0.83449
 Alpha  occ. eigenvalues --   -0.81860  -0.79406  -0.77598  -0.76512  -0.73543
 Alpha  occ. eigenvalues --   -0.72568  -0.68357  -0.67616  -0.67004  -0.66769
 Alpha  occ. eigenvalues --   -0.64406  -0.64062  -0.63322  -0.62265  -0.61634
 Alpha  occ. eigenvalues --   -0.60660  -0.59811  -0.58780  -0.58506  -0.58040
 Alpha  occ. eigenvalues --   -0.57758  -0.56741  -0.56236  -0.55182  -0.54535
 Alpha  occ. eigenvalues --   -0.53794  -0.51898  -0.50716  -0.49446  -0.48609
 Alpha  occ. eigenvalues --   -0.48017  -0.47019  -0.45306  -0.43252  -0.42166
 Alpha  occ. eigenvalues --   -0.39915
 Alpha virt. eigenvalues --   -0.20363  -0.11756  -0.10254  -0.09497  -0.08917
 Alpha virt. eigenvalues --   -0.08230  -0.07890  -0.07139  -0.06749  -0.06497
 Alpha virt. eigenvalues --   -0.06083  -0.05853  -0.05533  -0.04749  -0.04398

 Mulliken charges:
               1
     1  C   -0.500269
     2  C   -0.768943
     3  C    0.139808
     4  C   -0.422178
     5  C   -0.006844
     6  C   -0.420449
     7  O    0.084632
     8  O    0.052439
     9  O    0.211267
    10  O   -0.021408
    11  H    0.223106
    12  H    0.224354
    13  H    0.276139
    14  H    0.281298
    15  H    0.253995
    16  H    0.252780
    17  H    0.280193
    18  O    0.030798
    19  C   -0.304980
    20  H    0.191703
    21  H    0.178378
    22  H    0.159733
    23  C   -0.290244
    24  H    0.171264
    25  H    0.176813
    26  H    0.202061
    27  C   -0.303447
    28  H    0.183117
    29  H    0.188060
    30  H    0.206333
    31  C    0.055701
    32  O    0.266653
    33  C   -0.973115
    34  H    0.250822
    35  H    0.238861
    36  H    0.231569
 Sum of Mulliken charges =   1.00000

 Dipole moment (field-independent basis, Debye):
    X=             -2.2587    Y=             -0.8673    Z=             -0.6728  Tot=              2.5113
 Quadrupole moment (field-independent basis, Debye-Ang):
   XX=            -76.2603   YY=            -73.9890   ZZ=            -84.9286
   XY=              7.4571   XZ=              3.2649   YZ=              0.6492

  Exact polarizability: 145.954   6.311 146.879   4.639  -0.960 128.530
 Approx polarizability: 188.424   5.660 191.319  11.789  -3.755 180.656

                      1                      2                      3
                      A                      A                      A
 Frequencies --     44.2141                57.3385                65.5025
 Red. masses --      3.6725                 2.6840                 2.9529
 Frc consts  --      0.0042                 0.0052                 0.0075
 IR Inten    --      1.3926                 1.8443                 1.4636

                      4                      5                      6
                      A                      A                      A
 Frequencies --     80.7273                90.8634                92.0360
 Red. masses --      3.1242                 1.1971                 2.0508
 Frc consts  --      0.0120                 0.0058                 0.0102
 IR Inten    --      3.9426                 1.8108                 3.7429

                      7                      8                      9
                      A                      A                      A
 Frequencies --    105.7652               115.2923               157.6191
 Red. masses --      2.8020                 2.4460                 1.8151
 Frc consts  --      0.0185                 0.0192                 0.0266
 IR Inten    --      1.3320                 3.5755                 0.3032

                     10                     11                     12
                      A                      A                      A
 Frequencies --    173.2262               186.9448               193.4626
 Red. masses --      2.7806                 1.2850                 1.5048
 Frc consts  --      0.0492                 0.0265                 0.0332
 IR Inten    --      0.8355                 0.1192                 1.8928

                     13                     14                     15
                      A                      A                      A
 Frequencies --    225.5001               246.3866               270.1806
 Red. masses --      2.0474                 3.7200                 4.9909
 Frc consts  --      0.0613                 0.1331                 0.2147
 IR Inten    --      0.1955                 3.5088                18.6305

                     16                     17                     18
                      A                      A                      A
 Frequencies --    284.5971               303.2048               334.5821
 Red. masses --      3.6868                 5.5695                 4.3681
 Frc consts  --      0.1759                 0.3017                 0.2881
 IR Inten    --      6.8036                 0.6079                 2.4408

                     19                     20                     21
                      A                      A                      A
 Frequencies --    347.4190               367.7060               400.2022
 Red. masses --      4.0340                 4.0835                 5.5274
 Frc consts  --      0.2869                 0.3253                 0.5216
 IR Inten    --      3.0168                 2.9120                 3.2675

                     22                     23                     24
                      A                      A                      A
 Frequencies --    423.7425               456.3450               476.2236
 Red. masses --      4.6400                 4.6988                 2.6252
 Frc consts  --      0.4909                 0.5765                 0.3508
 IR Inten    --      1.8852                 7.0951                 0.1199

                     25                     26                     27
                      A                      A                      A
 Frequencies --    519.7235               565.2671               616.0776
 Red. masses --      4.5498                 3.2832                 3.5196
 Frc consts  --      0.7241                 0.6181                 0.7871
 IR Inten    --     10.2956                 3.8873                 5.1275

                     28                     29                     30
                      A                      A                      A
 Frequencies --    660.7745               691.6306               737.4466
 Red. masses --      5.8866                 4.2906                 5.9823
 Frc consts  --      1.5143                 1.2092                 1.9168
 IR Inten    --     34.2147                15.9495               136.2255

                     31                     32                     33
                      A                      A                      A
 Frequencies --    770.9656               811.9872               890.9609
 Red. masses --      4.9419                 6.6948                 3.6665
 Frc consts  --      1.7307                 2.6007                 1.7148
 IR Inten    --     14.0772                24.6285                13.1384

                     34                     35                     36
                      A                      A                      A
 Frequencies --    899.1251               930.9789               968.1619
 Red. masses --      2.6168                 3.8621                 3.7907
 Frc consts  --      1.2464                 1.9722                 2.0934
 IR Inten    --      5.2149                18.1871                47.0265

                     37                     38                     39
                      A                      A                      A
 Frequencies --    972.6955               983.2147              1015.0933
 Red. masses --      2.7556                 5.0180                 3.1220
 Frc consts  --      1.5361                 2.8581                 1.8954
 IR Inten    --      5.5126                63.5590                39.7583

                     40                     41                     42
                      A                      A                      A
 Frequencies --   1044.6226              1045.9623              1048.6956
 Red. masses --      3.1876                 2.1807                 1.7088
 Frc consts  --      2.0494                 1.4056                 1.1072
 IR Inten    --      4.9168                31.8139                 7.2049

                     43                     44                     45
                      A                      A                      A
 Frequencies --   1060.9924              1101.2479              1133.5528
 Red. masses --      2.2886                 2.1124                 1.8295
 Frc consts  --      1.5179                 1.5094                 1.3851
 IR Inten    --      5.2646                 6.5141                18.6703

                     46                     47                     48
                      A                      A                      A
 Frequencies --   1147.5116              1152.7322              1165.8383
 Red. masses --      2.3053                 2.8039                 1.9263
 Frc consts  --      1.7885                 2.1952                 1.5426
 IR Inten    --     14.4565                39.9494                81.8991

                     49                     50                     51
                      A                      A                      A
 Frequencies --   1175.3453              1177.0402              1179.5078
 Red. masses --      1.3144                 1.5208                 1.3113
 Frc consts  --      1.0698                 1.2414                 1.0749
 IR Inten    --      8.1773                59.0646                 8.5781

                     52                     53                     54
                      A                      A                      A
 Frequencies --   1182.7746              1223.8790              1228.0117
 Red. masses --      1.9069                 2.6508                 2.6078
 Frc consts  --      1.5718                 2.3394                 2.3170
 IR Inten    --     96.4357                89.5659                74.2301

                     55                     56                     57
                      A                      A                      A
 Frequencies --   1229.6472              1246.8746              1277.3961
 Red. masses --      2.4888                 2.0362                 1.6136
 Frc consts  --      2.2171                 1.8652                 1.5513
 IR Inten    --    126.0830                11.2681                34.2740

                     58                     59                     60
                      A                      A                      A
 Frequencies --   1304.6380              1315.9792              1319.4514
 Red. masses --      1.2927                 1.5217                 1.3154
 Frc consts  --      1.2964                 1.5526                 1.3492
 IR Inten    --     27.5025                 2.2599                 9.7533

                     61                     62                     63
                      A                      A                      A
 Frequencies --   1323.0231              1349.7775              1354.4770
 Red. masses --      1.3110                 1.3220                 1.3009
 Frc consts  --      1.3520                 1.4191                 1.4062
 IR Inten    --      6.3198                21.2837                43.3083

                     64                     65                     66
                      A                      A                      A
 Frequencies --   1378.2890              1381.4240              1395.5618
 Red. masses --      1.3634                 1.3742                 1.3579
 Frc consts  --      1.5261                 1.5451                 1.5582
 IR Inten    --     17.2819                 8.7394                 3.9829

                     67                     68                     69
                      A                      A                      A
 Frequencies --   1409.8172              1422.1108              1430.2039
 Red. masses --      1.4150                 1.6887                 1.6952
 Frc consts  --      1.6570                 2.0122                 2.0429
 IR Inten    --     48.1142                 1.0829                 9.2935

                     70                     71                     72
                      A                      A                      A
 Frequencies --   1439.0719              1451.6798              1474.1860
 Red. masses --      1.0654                 1.2463                 1.1161
 Frc consts  --      1.3000                 1.5474                 1.4291
 IR Inten    --     54.2667                80.7566                 3.9436

                     73                     74                     75
                      A                      A                      A
 Frequencies --   1474.7612              1476.7748              1490.5387
 Red. masses --      1.1278                 1.1273                 1.0440
 Frc consts  --      1.4452                 1.4485                 1.3665
 IR Inten    --      2.9540                10.4453                14.0784

                     76                     77                     78
                      A                      A                      A
 Frequencies --   1494.1655              1496.2657              1499.2699
 Red. masses --      1.0790                 1.0870                 1.0637
 Frc consts  --      1.4193                 1.4339                 1.4088
 IR Inten    --     11.6881                14.1251                13.1015

                     79                     80                     81
                      A                      A                      A
 Frequencies --   1500.7295              1501.7685              1502.4647
 Red. masses --      1.0483                 1.0906                 1.0473
 Frc consts  --      1.3910                 1.4491                 1.3930
 IR Inten    --      5.3618                 5.9009                19.0787

                     82                     83                     84
                      A                      A                      A
 Frequencies --   1515.1285              1620.1140              3015.4329
 Red. masses --      3.3909                 5.1624                 1.0374
 Frc consts  --      4.5863                 7.9835                 5.5577
 IR Inten    --    280.3985               296.3048                37.2391

                     85                     86                     87
                      A                      A                      A
 Frequencies --   3027.6581              3028.2603              3045.5424
 Red. masses --      1.0350                 1.0352                 1.0850
 Frc consts  --      5.5900                 5.5932                 5.9296
 IR Inten    --     47.9632                 7.1829                 3.7944

                     88                     89                     90
                      A                      A                      A
 Frequencies --   3050.1084              3053.9209              3065.8553
 Red. masses --      1.0594                 1.0856                 1.0428
 Frc consts  --      5.8068                 5.9654                 5.7751
 IR Inten    --     18.4011                 7.8139                19.4456

                     91                     92                     93
                      A                      A                      A
 Frequencies --   3080.9636              3086.9271              3100.0456
 Red. masses --      1.0868                 1.1030                 1.1070
 Frc consts  --      6.0782                 6.1927                 6.2679
 IR Inten    --      5.7141                33.4154                21.1961

                     94                     95                     96
                      A                      A                      A
 Frequencies --   3101.1974              3109.6984              3153.7656
 Red. masses --      1.1061                 1.1055                 1.0903
 Frc consts  --      6.2679                 6.2989                 6.3893
 IR Inten    --     25.3085                15.6136                 3.2137

                     97                     98                     99
                      A                      A                      A
 Frequencies --   3163.8175              3166.0353              3172.8925
 Red. masses --      1.0891                 1.1001                 1.1013
 Frc consts  --      6.4232                 6.4970                 6.5324
 IR Inten    --      1.3543                 8.8529                 4.8971

                    100                    101                    102
                      A                      A                      A
 Frequencies --   3174.6096              3180.1883              3204.5412
 Red. masses --      1.1001                 1.0921                 1.1077
 Frc consts  --      6.5322                 6.5078                 6.7021
 IR Inten    --      5.0443                 2.4341                 2.2083

 - Thermochemistry -
 -------------------
 Temperature   298.150 Kelvin.  Pressure   1.00000 Atm.
 Atom     1 has atomic number  6 and mass  12.00000

 Molecular mass:   247.11816 amu.
 Principal axes and moments of inertia in atomic units:
                           1         2         3
     Eigenvalues --  3382.829584224.010475249.58339
           X            0.99948   0.03220   0.00209
           Y           -0.03217   0.99941  -0.01219
           Z           -0.00249   0.01212   0.99992
 This molecule is an asymmetric top.
 Rotational symmetry number  1.
 Warning -- assumption of classical behavior for rotation
           may cause significant error
 Rotational temperatures (Kelvin)      0.02560     0.02051     0.01650
 Rotational constants (GHZ):           0.53350     0.42726     0.34379
 Zero-point vibrational energy     805433.4 (Joules/Mol)
                                  192.50320 (Kcal/Mol)
 Warning -- explicit consideration of  27 degrees of freedom as
           vibrations may cause significant error
 Vibrational temperatures:     63.61    82.50    94.24   116.15   130.73
          (Kelvin)            132.42   152.17   165.88   226.78   249.23
                              268.97   278.35   324.44   354.49   388.73
                              409.47   436.24   481.39   499.86   529.05
                              575.80   609.67   656.58   685.18   747.77
                              813.29   886.40   950.71   995.10  1061.02
                             1109.25  1168.27  1281.89  1293.64  1339.47
                             1392.97  1399.49  1414.62  1460.49  1502.98
                             1504.90  1508.84  1526.53  1584.45  1630.93
                             1651.01  1658.52  1677.38  1691.06  1693.50
                             1697.05  1701.75  1760.89  1766.83  1769.19
                             1793.97  1837.89  1877.08  1893.40  1898.39
                             1903.53  1942.03  1948.79  1983.05  1987.56
                             2007.90  2028.41  2046.10  2057.74  2070.50
                             2088.64  2121.02  2121.85  2124.75  2144.55
                             2149.77  2152.79  2157.11  2159.21  2160.71
                             2161.71  2179.93  2330.98  4338.53  4356.12
                             4356.99  4381.85  4388.42  4393.91  4411.08
                             4432.81  4441.39  4460.27  4461.93  4474.16
                             4537.56  4552.02  4555.21  4565.08  4567.55
                             4575.58  4610.61

 Zero-point correction=                           0.306773 (Hartree/Particle)
 Thermal correction to Energy=                    0.324586
 Thermal correction to Enthalpy=                  0.325530
 Thermal correction to Gibbs Free Energy=         0.260836
 Sum of electronic and zero-point Energies=           -880.623868
 Sum of electronic and thermal Energies=              -880.606055
 Sum of electronic and thermal Enthalpies=            -880.605111
 Sum of electronic and thermal Free Energies=         -880.669805

                     E (Thermal)             CV                S
                      KCal/Mol        Cal/Mol-Kelvin    Cal/Mol-Kelvin
 Total                  203.681             65.089            136.160
 Electronic               0.000              0.000              0.000
 Translational            0.889              2.981             42.415
 Rotational               0.889              2.981             32.684
 Vibrational            201.903             59.127             61.062
 Vibration     1          0.595              1.980              5.061
 Vibration     2          0.596              1.975              4.547
 Vibration     3          0.597              1.971              4.284
 Vibration     4          0.600              1.962              3.873
 Vibration     5          0.602              1.956              3.641
 Vibration     6          0.602              1.955              3.616
 Vibration     7          0.605              1.945              3.345
 Vibration     8          0.608              1.937              3.178
 Vibration     9          0.621              1.894              2.578
 Vibration    10          0.627              1.875              2.400
 Vibration    11          0.632              1.858              2.258
 Vibration    12          0.635              1.849              2.194
 Vibration    13          0.650              1.802              1.914
 Vibration    14          0.661              1.769              1.756
 Vibration    15          0.674              1.728              1.595
 Vibration    16          0.683              1.702              1.506
 Vibration    17          0.695              1.668              1.399
 Vibration    18          0.716              1.606              1.238
 Vibration    19          0.725              1.581              1.178
 Vibration    20          0.740              1.539              1.089
 Vibration    21          0.766              1.470              0.962
 Vibration    22          0.786              1.419              0.879
 Vibration    23          0.815              1.347              0.777
 Vibration    24          0.833              1.303              0.720
 Vibration    25          0.875              1.206              0.611
 Vibration    26          0.921              1.106              0.513
 Vibration    27          0.976              0.998              0.423

 Normal termination of Gaussian 09 at Tue Oct 24 14:54:55 2017.
