 Gaussian 09, Revision D.01,
 Gaussian 09:  EM64L-G09RevD.01 24-Apr-2013

 -------------------------------------------------------------------
 #P PBE1PBE/6-311+G(d,p) opt optcyc=999 freq EmpiricalDispersion=GD3
 -------------------------------------------------------------------

 -------
 disacch
 -------
 Symbolic Z-matrix:
 Charge =  1 Multiplicity = 1

 SCF Done:  E(RPBE1PBE) =  -880.924668922     A.U. after   20 cycles
 SCF Done:  E(RPBE1PBE) =  -880.928958580     A.U. after   12 cycles
 SCF Done:  E(RPBE1PBE) =  -880.929599809     A.U. after   18 cycles
 SCF Done:  E(RPBE1PBE) =  -880.929871221     A.U. after   13 cycles
 SCF Done:  E(RPBE1PBE) =  -880.929957719     A.U. after   12 cycles
 SCF Done:  E(RPBE1PBE) =  -880.929992381     A.U. after   11 cycles
 SCF Done:  E(RPBE1PBE) =  -880.929998314     A.U. after    9 cycles
 SCF Done:  E(RPBE1PBE) =  -880.929999198     A.U. after   13 cycles
 SCF Done:  E(RPBE1PBE) =  -880.929999769     A.U. after   13 cycles
 SCF Done:  E(RPBE1PBE) =  -880.929999863     A.U. after    9 cycles
 SCF Done:  E(RPBE1PBE) =  -880.929999999     A.U. after    9 cycles
 SCF Done:  E(RPBE1PBE) =  -880.930000060     A.U. after    7 cycles
 SCF Done:  E(RPBE1PBE) =  -880.930000144     A.U. after    8 cycles
 SCF Done:  E(RPBE1PBE) =  -880.930000191     A.U. after   10 cycles
 SCF Done:  E(RPBE1PBE) =  -880.930000216     A.U. after    9 cycles
 SCF Done:  E(RPBE1PBE) =  -880.930000207     A.U. after   11 cycles
 Optimization completed.
    -- Stationary point found.
 Normal termination of Gaussian 09 at Tue Oct 24 14:31:39 2017.

 ----------------------------------------------------------------------
 #P Geom=AllCheck Guess=TCheck SCRF=Check GenChk RPBE1PBE/6-311+G(d,p)
 Freq
 ----------------------------------------------------------------------

 Structure from the checkpoint file:  "Ac-4_cGalMe.chk"
 -------
 disacch
 -------
 Charge =  1 Multiplicity = 1

                         Standard orientation:
 ---------------------------------------------------------------------
 Center     Atomic      Atomic             Coordinates (Angstroms)
 Number     Number       Type             X           Y           Z
 ---------------------------------------------------------------------
      1          6           0       -2.660693    0.371645   -0.495574
      2          6           0       -1.327807   -0.313960   -0.226118
      3          6           0       -0.455756    0.442931    0.747035
      4          6           0        0.816151   -0.334125    1.075958
      5          6           0        1.285105   -1.131582   -0.160016
      6          6           0        0.709454   -0.470580   -1.412209
      7          8           0       -0.637285   -0.439284   -1.482669
      8          8           0        1.771609    0.576072    1.531631
      9          8           0       -0.104159    1.754349    0.170498
     10          8           0       -3.374575    0.475997    0.702086
     11          1           0       -3.203039   -0.192717   -1.263988
     12          1           0       -2.487306    1.381359   -0.880874
     13          1           0       -1.492506   -1.315885    0.186432
     14          1           0       -1.017512    0.717900    1.638072
     15          1           0        0.549479   -1.074774    1.843053
     16          1           0        2.382047   -1.102501   -0.223333
     17          1           0        1.103744   -0.845194   -2.354245
     18          8           0        0.800738   -2.431649   -0.028773
     19          6           0       -4.285949   -0.584531    0.934781
     20          1           0       -4.762117   -0.385206    1.894306
     21          1           0       -5.054410   -0.618537    0.153712
     22          1           0       -3.781367   -1.558627    0.985078
     23          6           0        1.329880   -3.372835   -0.953545
     24          1           0        0.951386   -3.204992   -1.968184
     25          1           0        2.426176   -3.341400   -0.957600
     26          1           0        1.001325   -4.354625   -0.616218
     27          6           0        2.793714   -0.003966    2.331639
     28          1           0        2.366620   -0.454203    3.234464
     29          1           0        3.359383   -0.764454    1.780520
     30          1           0        3.466010    0.804967    2.613160
     31          6           0        0.800294    1.890703   -0.721271
     32          8           0        1.276949    0.949190   -1.432056
     33          6           0        1.320393    3.252460   -0.934473
     34          1           0        2.078511    3.428504   -0.162294
     35          1           0        0.522187    3.981026   -0.787226
     36          1           0        1.776454    3.345005   -1.917800
 ---------------------------------------------------------------------

 SCF Done:  E(RPBE1PBE) =  -880.930000207     A.U. after    3 cycles

 The electronic state is 1-A.
 Alpha  occ. eigenvalues --  -19.45385 -19.45083 -19.39969 -19.36425 -19.36199
 Alpha  occ. eigenvalues --  -19.33246 -10.57472 -10.50930 -10.45911 -10.44156
 Alpha  occ. eigenvalues --  -10.43987 -10.43731 -10.40073 -10.39244 -10.39100
 Alpha  occ. eigenvalues --  -10.38931 -10.36913  -1.37351  -1.29362  -1.26817
 Alpha  occ. eigenvalues --   -1.23245  -1.22067  -1.19609  -1.01869  -0.98664
 Alpha  occ. eigenvalues --   -0.95482  -0.89893  -0.88510  -0.86253  -0.83506
 Alpha  occ. eigenvalues --   -0.81681  -0.79452  -0.77618  -0.76448  -0.73414
 Alpha  occ. eigenvalues --   -0.72200  -0.68456  -0.67569  -0.67004  -0.66633
 Alpha  occ. eigenvalues --   -0.64240  -0.64074  -0.63485  -0.62174  -0.61536
 Alpha  occ. eigenvalues --   -0.60540  -0.59663  -0.58788  -0.58331  -0.57872
 Alpha  occ. eigenvalues --   -0.57437  -0.56968  -0.56004  -0.55027  -0.54198
 Alpha  occ. eigenvalues --   -0.53693  -0.52418  -0.50594  -0.49319  -0.48399
 Alpha  occ. eigenvalues --   -0.48128  -0.47247  -0.45250  -0.43110  -0.41943
 Alpha  occ. eigenvalues --   -0.39800
 Alpha virt. eigenvalues --   -0.20212  -0.11604  -0.10395  -0.09660  -0.09014
 Alpha virt. eigenvalues --   -0.08469  -0.07657  -0.06870  -0.06740  -0.06503
 Alpha virt. eigenvalues --   -0.05969  -0.05778  -0.05309  -0.04802  -0.04330

 Mulliken charges:
               1
     1  C   -0.593450
     2  C   -0.479974
     3  C    0.121040
     4  C   -0.535250
     5  C   -0.096588
     6  C   -0.392654
     7  O    0.069758
     8  O    0.041090
     9  O    0.251075
    10  O   -0.018693
    11  H    0.219083
    12  H    0.224017
    13  H    0.271802
    14  H    0.282991
    15  H    0.260499
    16  H    0.232917
    17  H    0.275588
    18  O    0.052063
    19  C   -0.305587
    20  H    0.192546
    21  H    0.177807
    22  H    0.158329
    23  C   -0.290000
    24  H    0.172970
    25  H    0.173518
    26  H    0.204058
    27  C   -0.270390
    28  H    0.182242
    29  H    0.167771
    30  H    0.198017
    31  C    0.113329
    32  O    0.271174
    33  C   -1.045093
    34  H    0.249813
    35  H    0.235010
    36  H    0.229171
 Sum of Mulliken charges =   1.00000

 Dipole moment (field-independent basis, Debye):
    X=              2.9320    Y=              0.4484    Z=             -1.0536  Tot=              3.1477
 Quadrupole moment (field-independent basis, Debye-Ang):
   XX=            -72.5470   YY=            -73.5278   ZZ=            -87.5625
   XY=              5.0022   XZ=             -0.1870   YZ=             -3.1566

  Exact polarizability: 148.165   5.036 146.402  -2.630   0.338 126.771
 Approx polarizability: 185.935   6.318 191.719 -10.204   2.762 180.919

                      1                      2                      3
                      A                      A                      A
 Frequencies --     43.6931                56.8407                61.5746
 Red. masses --      3.8115                 2.6786                 2.8436
 Frc consts  --      0.0043                 0.0051                 0.0064
 IR Inten    --      0.8275                 1.8854                 1.1283

                      4                      5                      6
                      A                      A                      A
 Frequencies --     73.9291                77.7615                93.3579
 Red. masses --      1.6377                 1.4313                 2.7957
 Frc consts  --      0.0053                 0.0051                 0.0144
 IR Inten    --      2.6359                 4.6189                 0.9933

                      7                      8                      9
                      A                      A                      A
 Frequencies --    102.4877               122.0347               152.2849
 Red. masses --      2.5898                 2.1777                 1.9578
 Frc consts  --      0.0160                 0.0191                 0.0268
 IR Inten    --      0.9905                 3.6120                 0.3716

                     10                     11                     12
                      A                      A                      A
 Frequencies --    168.7366               173.1304               192.7729
 Red. masses --      1.4740                 2.9013                 1.5030
 Frc consts  --      0.0247                 0.0512                 0.0329
 IR Inten    --      0.9028                 0.5699                 1.2922

                     13                     14                     15
                      A                      A                      A
 Frequencies --    216.4166               243.5451               259.6170
 Red. masses --      2.0230                 3.6422                 3.7988
 Frc consts  --      0.0558                 0.1273                 0.1509
 IR Inten    --      4.8082                 4.8437                 2.9760

                     16                     17                     18
                      A                      A                      A
 Frequencies --    274.0684               313.2981               322.4542
 Red. masses --      5.1859                 5.1892                 3.7717
 Frc consts  --      0.2295                 0.3001                 0.2311
 IR Inten    --      8.9749                 2.6185                 8.0176

                     19                     20                     21
                      A                      A                      A
 Frequencies --    353.1115               361.2457               397.2346
 Red. masses --      4.6965                 3.8591                 4.8265
 Frc consts  --      0.3450                 0.2967                 0.4487
 IR Inten    --      1.2060                 1.2668                 6.7644

                     22                     23                     24
                      A                      A                      A
 Frequencies --    438.5765               466.2856               474.7911
 Red. masses --      4.7068                 3.0841                 3.9454
 Frc consts  --      0.5334                 0.3951                 0.5240
 IR Inten    --      0.1094                 9.5483                 9.3238

                     25                     26                     27
                      A                      A                      A
 Frequencies --    505.9807               538.3920               622.6032
 Red. masses --      4.0305                 3.6928                 3.4113
 Frc consts  --      0.6080                 0.6307                 0.7791
 IR Inten    --      5.6117                 5.5353                 6.1599

                     28                     29                     30
                      A                      A                      A
 Frequencies --    655.0756               693.8910               739.6649
 Red. masses --      5.7133                 4.1422                 5.9219
 Frc consts  --      1.4445                 1.1751                 1.9089
 IR Inten    --     28.9591                 9.2836               130.2969

                     31                     32                     33
                      A                      A                      A
 Frequencies --    771.8043               814.4412               886.0791
 Red. masses --      5.0887                 6.3072                 2.9323
 Frc consts  --      1.7860                 2.4649                 1.3564
 IR Inten    --     19.5073                16.5494                16.6700

                     34                     35                     36
                      A                      A                      A
 Frequencies --    893.4214               934.1795               968.2798
 Red. masses --      3.2087                 4.4069                 3.8236
 Frc consts  --      1.5090                 2.2659                 2.1122
 IR Inten    --      2.3143                27.6624                36.1305

                     37                     38                     39
                      A                      A                      A
 Frequencies --    978.9826               997.4403              1013.2955
 Red. masses --      2.6820                 4.7017                 2.9638
 Frc consts  --      1.5145                 2.7560                 1.7929
 IR Inten    --      4.0780                38.2452                37.2525

                     40                     41                     42
                      A                      A                      A
 Frequencies --   1043.8338              1049.0240              1050.9416
 Red. masses --      3.0407                 1.9906                 1.7498
 Frc consts  --      1.9520                 1.2907                 1.1387
 IR Inten    --     35.2340                36.7974                 7.3522

                     43                     44                     45
                      A                      A                      A
 Frequencies --   1064.4017              1099.0469              1135.4223
 Red. masses --      2.4264                 2.0831                 1.9128
 Frc consts  --      1.6196                 1.4825                 1.4529
 IR Inten    --     18.4594                 4.0526                17.5871

                     46                     47                     48
                      A                      A                      A
 Frequencies --   1136.8681              1162.0493              1166.7010
 Red. masses --      2.4366                 2.4065                 1.9790
 Frc consts  --      1.8555                 1.9146                 1.5871
 IR Inten    --     42.1951                68.8207                78.8936

                     49                     50                     51
                      A                      A                      A
 Frequencies --   1173.4319              1175.4686              1178.0951
 Red. masses --      1.3629                 1.4421                 1.4006
 Frc consts  --      1.1057                 1.1740                 1.1453
 IR Inten    --     15.7441                20.4753                19.6399

                     52                     53                     54
                      A                      A                      A
 Frequencies --   1188.4557              1225.3675              1228.7128
 Red. masses --      2.0385                 2.7202                 2.6941
 Frc consts  --      1.6964                 2.4065                 2.3964
 IR Inten    --    132.7535                54.0289                92.1451

                     55                     56                     57
                      A                      A                      A
 Frequencies --   1230.9002              1236.0313              1276.9777
 Red. masses --      2.1613                 2.1224                 1.5557
 Frc consts  --      1.9294                 1.9105                 1.4947
 IR Inten    --    102.8271                21.6513                11.7694

                     58                     59                     60
                      A                      A                      A
 Frequencies --   1304.5973              1310.0681              1317.6552
 Red. masses --      1.3784                 1.3658                 1.2748
 Frc consts  --      1.3822                 1.3811                 1.3040
 IR Inten    --     36.7647                 2.2497                 5.0170

                     61                     62                     63
                      A                      A                      A
 Frequencies --   1324.9882              1351.7649              1353.4872
 Red. masses --      1.3585                 1.3679                 1.2612
 Frc consts  --      1.4052                 1.4727                 1.3613
 IR Inten    --      4.5019                33.0788                33.9248

                     64                     65                     66
                      A                      A                      A
 Frequencies --   1379.3764              1390.0768              1396.3172
 Red. masses --      1.2591                 1.4944                 1.3866
 Frc consts  --      1.4115                 1.7014                 1.5929
 IR Inten    --      0.4914                14.0237                 7.0410

                     67                     68                     69
                      A                      A                      A
 Frequencies --   1406.8376              1423.3955              1431.0501
 Red. masses --      1.4072                 1.6229                 1.7964
 Frc consts  --      1.6409                 1.9373                 2.1675
 IR Inten    --     44.5503                 3.2902                12.6731

                     70                     71                     72
                      A                      A                      A
 Frequencies --   1438.7293              1451.7989              1473.7285
 Red. masses --      1.0958                 1.1835                 1.1182
 Frc consts  --      1.3364                 1.4697                 1.4308
 IR Inten    --     59.9928                61.0513                 5.8764

                     73                     74                     75
                      A                      A                      A
 Frequencies --   1474.6393              1479.3804              1490.6367
 Red. masses --      1.1274                 1.1347                 1.0439
 Frc consts  --      1.4445                 1.4631                 1.3666
 IR Inten    --      2.8082                 5.1100                15.7272

                     76                     77                     78
                      A                      A                      A
 Frequencies --   1491.4287              1492.1407              1498.9556
 Red. masses --      1.0628                 1.0614                 1.0662
 Frc consts  --      1.3929                 1.3923                 1.4115
 IR Inten    --      8.7660                14.7887                11.6062

                     79                     80                     81
                      A                      A                      A
 Frequencies --   1499.5140              1501.6481              1502.6940
 Red. masses --      1.0690                 1.0879                 1.0460
 Frc consts  --      1.4162                 1.4454                 1.3917
 IR Inten    --     12.8975                 5.9725                18.3614

                     82                     83                     84
                      A                      A                      A
 Frequencies --   1518.1833              1623.0879              3014.3773
 Red. masses --      3.9122                 5.2089                 1.0375
 Frc consts  --      5.3127                 8.0851                 5.5542
 IR Inten    --    303.1488               299.7756                37.2816

                     85                     86                     87
                      A                      A                      A
 Frequencies --   3026.6641              3030.3038              3037.4540
 Red. masses --      1.0355                 1.0374                 1.0825
 Frc consts  --      5.5889                 5.6127                 5.8842
 IR Inten    --     28.9236                26.0765                20.3509

                     88                     89                     90
                      A                      A                      A
 Frequencies --   3040.4412              3049.1727              3067.0733
 Red. masses --      1.0841                 1.0599                 1.0418
 Frc consts  --      5.9044                 5.8061                 5.7739
 IR Inten    --      4.2853                18.5603                20.0477

                     91                     92                     93
                      A                      A                      A
 Frequencies --   3080.4873              3085.3343              3099.0323
 Red. masses --      1.0874                 1.1023                 1.1066
 Frc consts  --      6.0796                 6.1825                 6.2619
 IR Inten    --      6.8883                32.9778                24.8756

                     94                     95                     96
                      A                      A                      A
 Frequencies --   3102.7449              3109.7783              3150.8513
 Red. masses --      1.1062                 1.1050                 1.0923
 Frc consts  --      6.2743                 6.2959                 6.3891
 IR Inten    --     22.7110                15.7192                 3.9052

                     97                     98                     99
                      A                      A                      A
 Frequencies --   3165.9660              3170.6334              3173.8177
 Red. masses --      1.1000                 1.0894                 1.0984
 Frc consts  --      6.4961                 6.4527                 6.5192
 IR Inten    --      8.1562                 2.3255                 5.5741

                    100                    101                    102
                      A                      A                      A
 Frequencies --   3175.9247              3176.6634              3206.6675
 Red. masses --      1.1016                 1.0936                 1.1068
 Frc consts  --      6.5464                 6.5023                 6.7051
 IR Inten    --      5.8342                 2.5841                 2.4659

 - Thermochemistry -
 -------------------
 Temperature   298.150 Kelvin.  Pressure   1.00000 Atm.
 Atom     1 has atomic number  6 and mass  12.00000

 Molecular mass:   247.11816 amu.
 Principal axes and moments of inertia in atomic units:
                           1         2         3
     Eigenvalues --  3253.941494396.837815404.28718
           X            0.99992   0.01207   0.00390
           Y           -0.01206   0.99992  -0.00295
           Z           -0.00394   0.00291   0.99999
 This molecule is an asymmetric top.
 Rotational symmetry number  1.
 Warning -- assumption of classical behavior for rotation
           may cause significant error
 Rotational temperatures (Kelvin)      0.02662     0.01970     0.01603
 Rotational constants (GHZ):           0.55463     0.41046     0.33395
 Zero-point vibrational energy     804871.9 (Joules/Mol)
                                  192.36900 (Kcal/Mol)
 Warning -- explicit consideration of  26 degrees of freedom as
           vibrations may cause significant error
 Vibrational temperatures:     62.86    81.78    88.59   106.37   111.88
          (Kelvin)            134.32   147.46   175.58   219.10   242.77
                              249.10   277.36   311.37   350.41   373.53
                              394.32   450.77   463.94   508.05   519.75
                              571.53   631.01   670.88   683.12   727.99
                              774.62   895.79   942.51   998.35  1064.21
                             1110.45  1171.80  1274.87  1285.43  1344.07
                             1393.14  1408.54  1435.09  1457.90  1501.84
                             1509.31  1512.07  1531.43  1581.28  1633.62
                             1635.70  1671.93  1678.62  1688.30  1691.24
                             1695.01  1709.92  1763.03  1767.84  1770.99
                             1778.37  1837.28  1877.02  1884.89  1895.81
                             1906.36  1944.89  1947.36  1984.61  2000.01
                             2008.99  2024.12  2047.95  2058.96  2070.01
                             2088.81  2120.36  2121.67  2128.50  2144.69
                             2145.83  2146.85  2156.66  2157.46  2160.53
                             2162.04  2184.32  2335.26  4337.01  4354.69
                             4359.93  4370.21  4374.51  4387.07  4412.83
                             4432.13  4439.10  4458.81  4464.15  4474.27
                             4533.37  4555.11  4561.83  4566.41  4569.44
                             4570.50  4613.67

 Zero-point correction=                           0.306560 (Hartree/Particle)
 Thermal correction to Energy=                    0.324506
 Thermal correction to Enthalpy=                  0.325450
 Thermal correction to Gibbs Free Energy=         0.260230
 Sum of electronic and zero-point Energies=           -880.623441
 Sum of electronic and thermal Energies=              -880.605495
 Sum of electronic and thermal Enthalpies=            -880.604550
 Sum of electronic and thermal Free Energies=         -880.669770

                     E (Thermal)             CV                S
                      KCal/Mol        Cal/Mol-Kelvin    Cal/Mol-Kelvin
 Total                  203.630             65.206            137.266
 Electronic               0.000              0.000              0.000
 Translational            0.889              2.981             42.415
 Rotational               0.889              2.981             32.714
 Vibrational            201.853             59.244             62.138
 Vibration     1          0.595              1.980              5.084
 Vibration     2          0.596              1.975              4.564
 Vibration     3          0.597              1.973              4.406
 Vibration     4          0.599              1.966              4.046
 Vibration     5          0.599              1.964              3.947
 Vibration     6          0.602              1.954              3.588
 Vibration     7          0.605              1.947              3.406
 Vibration     8          0.610              1.931              3.068
 Vibration     9          0.619              1.900              2.643
 Vibration    10          0.625              1.881              2.450
 Vibration    11          0.627              1.876              2.401
 Vibration    12          0.635              1.850              2.201
 Vibration    13          0.645              1.816              1.989
 Vibration    14          0.659              1.773              1.777
 Vibration    15          0.668              1.746              1.664
 Vibration    16          0.676              1.721              1.570
 Vibration    17          0.701              1.648              1.345
 Vibration    18          0.707              1.630              1.298
 Vibration    19          0.729              1.569              1.152
 Vibration    20          0.735              1.552              1.117
 Vibration    21          0.764              1.476              0.973
 Vibration    22          0.799              1.386              0.831
 Vibration    23          0.824              1.325              0.748
 Vibration    24          0.832              1.306              0.724
 Vibration    25          0.861              1.237              0.643
 Vibration    26          0.893              1.165              0.569

 Normal termination of Gaussian 09 at Tue Oct 24 14:53:55 2017.
