 Gaussian 09, Revision D.01,
 Gaussian 09:  EM64L-G09RevD.01 24-Apr-2013

 -------------------------------------------------------------------
 #P PBE1PBE/6-311+G(d,p) opt optcyc=999 freq EmpiricalDispersion=GD3
 -------------------------------------------------------------------

 -------
 disacch
 -------
 Symbolic Z-matrix:
 Charge =  1 Multiplicity = 1

 SCF Done:  E(RPBE1PBE) =  -880.927484301     A.U. after   20 cycles
 SCF Done:  E(RPBE1PBE) =  -880.931629922     A.U. after   17 cycles
 SCF Done:  E(RPBE1PBE) =  -880.932086720     A.U. after   16 cycles
 SCF Done:  E(RPBE1PBE) =  -880.932347426     A.U. after   11 cycles
 SCF Done:  E(RPBE1PBE) =  -880.932449769     A.U. after   12 cycles
 SCF Done:  E(RPBE1PBE) =  -880.932496146     A.U. after   11 cycles
 SCF Done:  E(RPBE1PBE) =  -880.932505531     A.U. after   15 cycles
 SCF Done:  E(RPBE1PBE) =  -880.932508498     A.U. after   16 cycles
 SCF Done:  E(RPBE1PBE) =  -880.932509327     A.U. after   14 cycles
 SCF Done:  E(RPBE1PBE) =  -880.932509679     A.U. after   11 cycles
 SCF Done:  E(RPBE1PBE) =  -880.932509788     A.U. after   13 cycles
 SCF Done:  E(RPBE1PBE) =  -880.932509819     A.U. after   14 cycles
 Optimization completed.
    -- Stationary point found.
 Normal termination of Gaussian 09 at Mon Jan  9 14:34:30 2017.

 ----------------------------------------------------------------------
 #P Geom=AllCheck Guess=TCheck SCRF=Check GenChk RPBE1PBE/6-311+G(d,p)
 Freq
 ----------------------------------------------------------------------

 Structure from the checkpoint file:  "Ac-4_cGalMe.chk"
 -------
 disacch
 -------
 Charge =  1 Multiplicity = 1

                         Standard orientation:
 ---------------------------------------------------------------------
 Center     Atomic      Atomic             Coordinates (Angstroms)
 Number     Number       Type             X           Y           Z
 ---------------------------------------------------------------------
      1          6           0        2.198669   -1.552661   -0.736420
      2          6           0        0.743488   -1.270171   -0.448270
      3          6           0        0.180381   -0.003912   -1.067133
      4          6           0       -1.325242    0.105150   -0.824362
      5          6           0       -1.671441   -0.426725    0.589836
      6          6           0       -0.415555   -0.454907    1.444532
      7          8           0        0.589623   -1.220060    0.979479
      8          8           0       -1.689902    1.437906   -1.019183
      9          8           0        0.845709    1.186023   -0.533448
     10          8           0        2.978417   -0.462390   -0.342161
     11          1           0        2.309796   -1.760897   -1.812889
     12          1           0        2.477683   -2.465009   -0.188651
     13          1           0        0.143706   -2.107024   -0.829679
     14          1           0        0.412731    0.054987   -2.129395
     15          1           0       -1.807895   -0.561966   -1.554108
     16          1           0       -2.399151    0.246867    1.062450
     17          1           0       -0.606509   -0.711424    2.483700
     18          8           0       -2.113293   -1.750783    0.568471
     19          6           0        4.365458   -0.714005   -0.467619
     20          1           0        4.886259    0.188034   -0.147526
     21          1           0        4.673515   -1.552713    0.169196
     22          1           0        4.636569   -0.933361   -1.508221
     23          6           0       -3.502307   -1.892799    0.315612
     24          1           0       -3.783284   -1.472932   -0.658799
     25          1           0       -3.711358   -2.961386    0.314124
     26          1           0       -4.092779   -1.408503    1.102435
     27          6           0       -3.062138    1.627173   -1.328097
     28          1           0       -3.320738    1.124359   -2.267434
     29          1           0       -3.715854    1.258947   -0.527794
     30          1           0       -3.211890    2.699765   -1.440986
     31          6           0        0.691156    1.599164    0.660179
     32          8           0        0.055659    0.989538    1.580695
     33          6           0        1.334559    2.880744    0.999339
     34          1           0        1.247036    3.575260    0.164023
     35          1           0        2.399016    2.671845    1.159158
     36          1           0        0.911274    3.290975    1.913988
 ---------------------------------------------------------------------

 SCF Done:  E(RPBE1PBE) =  -880.932509819     A.U. after    3 cycles

 The electronic state is 1-A.
 Alpha  occ. eigenvalues --  -19.44898 -19.44315 -19.39086 -19.36173 -19.35780
 Alpha  occ. eigenvalues --  -19.33489 -10.56737 -10.50331 -10.46312 -10.44175
 Alpha  occ. eigenvalues --  -10.44058 -10.43623 -10.40407 -10.39271 -10.38937
 Alpha  occ. eigenvalues --  -10.38312 -10.36985  -1.36813  -1.28997  -1.26242
 Alpha  occ. eigenvalues --   -1.23023  -1.21822  -1.19863  -1.01727  -0.98651
 Alpha  occ. eigenvalues --   -0.94929  -0.90442  -0.87688  -0.86112  -0.83435
 Alpha  occ. eigenvalues --   -0.81654  -0.78960  -0.77479  -0.76937  -0.72729
 Alpha  occ. eigenvalues --   -0.71873  -0.68131  -0.67264  -0.66574  -0.65941
 Alpha  occ. eigenvalues --   -0.64182  -0.63979  -0.63515  -0.62086  -0.60954
 Alpha  occ. eigenvalues --   -0.60661  -0.59853  -0.58952  -0.58008  -0.57581
 Alpha  occ. eigenvalues --   -0.56921  -0.56545  -0.55182  -0.54707  -0.53865
 Alpha  occ. eigenvalues --   -0.52871  -0.52642  -0.51509  -0.48977  -0.48421
 Alpha  occ. eigenvalues --   -0.47596  -0.46027  -0.45822  -0.44342  -0.40714
 Alpha  occ. eigenvalues --   -0.39914
 Alpha virt. eigenvalues --   -0.19333  -0.11399  -0.09920  -0.09444  -0.09041
 Alpha virt. eigenvalues --   -0.08190  -0.07570  -0.07193  -0.06514  -0.06328
 Alpha virt. eigenvalues --   -0.05877  -0.05201  -0.04938  -0.04538  -0.03871

 Mulliken charges:
               1
     1  C   -0.749418
     2  C    0.004459
     3  C   -0.007797
     4  C   -0.487719
     5  C   -0.263018
     6  C   -0.370244
     7  O    0.082285
     8  O    0.036468
     9  O    0.325652
    10  O   -0.132289
    11  H    0.194645
    12  H    0.213213
    13  H    0.265682
    14  H    0.240915
    15  H    0.244756
    16  H    0.253020
    17  H    0.279724
    18  O    0.047766
    19  C   -0.267435
    20  H    0.178466
    21  H    0.170028
    22  H    0.165638
    23  C   -0.246902
    24  H    0.174643
    25  H    0.206410
    26  H    0.181004
    27  C   -0.247608
    28  H    0.183217
    29  H    0.177145
    30  H    0.203515
    31  C    0.108228
    32  O    0.301054
    33  C   -1.176077
    34  H    0.237078
    35  H    0.243947
    36  H    0.229549
 Sum of Mulliken charges =   1.00000

 Dipole moment (field-independent basis, Debye):
    X=             -1.1002    Y=              1.4994    Z=             -0.7982  Tot=              2.0238
 Quadrupole moment (field-independent basis, Debye-Ang):
   XX=            -60.5840   YY=            -80.8588   ZZ=            -88.8395
   XY=              2.1104   XZ=              0.5777   YZ=              7.1072

  Exact polarizability: 156.776   5.530 141.596  -0.313   3.402 123.411
 Approx polarizability: 182.636   6.467 191.493  -3.980   4.673 184.975

                      1                      2                      3
                      A                      A                      A
 Frequencies --     35.4668                52.6966                59.2510
 Red. masses --      3.9963                 2.2502                 1.3877
 Frc consts  --      0.0030                 0.0037                 0.0029
 IR Inten    --      1.6323                 1.4711                 0.8611

                      4                      5                      6
                      A                      A                      A
 Frequencies --     80.4938                88.6932                97.2057
 Red. masses --      3.4832                 2.6878                 2.5385
 Frc consts  --      0.0133                 0.0125                 0.0141
 IR Inten    --      2.1925                 2.3818                 0.6052

                      7                      8                      9
                      A                      A                      A
 Frequencies --    104.9024               119.6808               161.2524
 Red. masses --      2.0568                 2.6600                 2.1553
 Frc consts  --      0.0133                 0.0224                 0.0330
 IR Inten    --      3.5153                 4.4308                 1.4549

                     10                     11                     12
                      A                      A                      A
 Frequencies --    176.3336               183.1839               199.3764
 Red. masses --      1.3943                 1.7409                 2.2708
 Frc consts  --      0.0255                 0.0344                 0.0532
 IR Inten    --      0.2030                 0.5471                 1.2080

                     13                     14                     15
                      A                      A                      A
 Frequencies --    223.5146               237.8077               267.6065
 Red. masses --      2.1650                 2.3138                 3.5961
 Frc consts  --      0.0637                 0.0771                 0.1517
 IR Inten    --      1.5077                 2.7096                 1.6778

                     16                     17                     18
                      A                      A                      A
 Frequencies --    282.5129               303.1526               318.6505
 Red. masses --      3.6656                 3.7580                 4.5402
 Frc consts  --      0.1724                 0.2035                 0.2716
 IR Inten    --      1.6203                 0.9352                 1.2145

                     19                     20                     21
                      A                      A                      A
 Frequencies --    336.4261               353.5344               370.6023
 Red. masses --      3.6445                 3.9270                 5.3718
 Frc consts  --      0.2430                 0.2892                 0.4347
 IR Inten    --      5.8136                 0.5100                 4.7859

                     22                     23                     24
                      A                      A                      A
 Frequencies --    393.6269               433.8457               481.0156
 Red. masses --      3.5463                 4.8282                 4.6574
 Frc consts  --      0.3237                 0.5354                 0.6349
 IR Inten    --     18.6622                 5.0482                 7.9506

                     25                     26                     27
                      A                      A                      A
 Frequencies --    524.5122               605.8482               628.9147
 Red. masses --      4.5520                 3.6026                 4.4945
 Frc consts  --      0.7378                 0.7791                 1.0474
 IR Inten    --      4.3276                 4.8382                 3.3173

                     28                     29                     30
                      A                      A                      A
 Frequencies --    660.8069               738.1168               751.3909
 Red. masses --      4.9542                 6.1575                 5.2535
 Frc consts  --      1.2746                 1.9765                 1.7476
 IR Inten    --     21.3000               133.1200                 3.3265

                     31                     32                     33
                      A                      A                      A
 Frequencies --    794.1981               823.8921               859.4977
 Red. masses --      5.0471                 6.3316                 3.3008
 Frc consts  --      1.8757                 2.5322                 1.4367
 IR Inten    --     24.3925                16.1271                 5.0529

                     34                     35                     36
                      A                      A                      A
 Frequencies --    905.9486               935.9207               960.0875
 Red. masses --      3.2187                 2.5277                 4.1741
 Frc consts  --      1.5565                 1.3045                 2.2669
 IR Inten    --      9.2021                11.0372                13.3714

                     37                     38                     39
                      A                      A                      A
 Frequencies --    987.7442              1008.2300              1017.4516
 Red. masses --      2.5177                 2.6345                 4.0336
 Frc consts  --      1.4472                 1.5779                 2.4602
 IR Inten    --      3.6861                 7.1049                45.8504

                     40                     41                     42
                      A                      A                      A
 Frequencies --   1042.9234              1047.6983              1052.0519
 Red. masses --      2.5526                 2.3263                 1.6909
 Frc consts  --      1.6358                 1.5045                 1.1026
 IR Inten    --     11.3998                43.0816                18.6184

                     43                     44                     45
                      A                      A                      A
 Frequencies --   1078.8155              1091.1063              1112.2501
 Red. masses --      2.6156                 3.1823                 1.8699
 Frc consts  --      1.7936                 2.2322                 1.3629
 IR Inten    --     25.5076                80.6066                32.4105

                     46                     47                     48
                      A                      A                      A
 Frequencies --   1145.9958              1163.1963              1173.5937
 Red. masses --      2.2496                 2.5487                 1.5299
 Frc consts  --      1.7407                 2.0318                 1.2415
 IR Inten    --     56.2966               178.9778                23.6285

                     49                     50                     51
                      A                      A                      A
 Frequencies --   1177.1247              1178.3855              1181.4782
 Red. masses --      1.4186                 1.3400                 1.8508
 Frc consts  --      1.1581                 1.0963                 1.5221
 IR Inten    --     43.3859                 5.3667                15.4677

                     52                     53                     54
                      A                      A                      A
 Frequencies --   1190.0539              1221.5933              1225.0321
 Red. masses --      2.0348                 2.2597                 2.1090
 Frc consts  --      1.6979                 1.9868                 1.8648
 IR Inten    --     63.4285                78.5705                35.3329

                     55                     56                     57
                      A                      A                      A
 Frequencies --   1235.5593              1238.5870              1272.4007
 Red. masses --      2.2572                 2.2518                 1.4266
 Frc consts  --      2.0302                 2.0353                 1.3608
 IR Inten    --     56.4628                42.4524                25.4963

                     58                     59                     60
                      A                      A                      A
 Frequencies --   1287.5734              1311.1855              1320.5098
 Red. masses --      1.2005                 1.3611                 1.3650
 Frc consts  --      1.1726                 1.3787                 1.4024
 IR Inten    --     17.4438                41.1787                 6.8777

                     61                     62                     63
                      A                      A                      A
 Frequencies --   1324.3571              1353.2310              1359.5249
 Red. masses --      1.4468                 1.2786                 1.2912
 Frc consts  --      1.4951                 1.3795                 1.4061
 IR Inten    --      2.5830                20.8011                30.1973

                     64                     65                     66
                      A                      A                      A
 Frequencies --   1381.7784              1391.1927              1400.8411
 Red. masses --      1.3163                 1.5304                 1.4033
 Frc consts  --      1.4808                 1.7451                 1.6224
 IR Inten    --     26.8157                11.3678                14.5503

                     67                     68                     69
                      A                      A                      A
 Frequencies --   1417.3576              1427.3967              1437.1808
 Red. masses --      1.6532                 1.5291                 1.2179
 Frc consts  --      1.9568                 1.8355                 1.4821
 IR Inten    --     10.4652                10.2411                58.8834

                     70                     71                     72
                      A                      A                      A
 Frequencies --   1441.8910              1453.3528              1471.6208
 Red. masses --      1.6244                 1.1871                 1.1289
 Frc consts  --      1.9898                 1.4774                 1.4405
 IR Inten    --     10.6512                59.7324                 4.9017

                     73                     74                     75
                      A                      A                      A
 Frequencies --   1476.3251              1478.1882              1484.9415
 Red. masses --      1.1562                 1.1413                 1.0410
 Frc consts  --      1.4848                 1.4692                 1.3525
 IR Inten    --      2.4522                 3.7127                13.5364

                     76                     77                     78
                      A                      A                      A
 Frequencies --   1488.6564              1491.4482              1492.2136
 Red. masses --      1.0446                 1.0498                 1.0685
 Frc consts  --      1.3640                 1.3759                 1.4018
 IR Inten    --     25.2389                 0.2314                12.1643

                     79                     80                     81
                      A                      A                      A
 Frequencies --   1499.3888              1501.7989              1510.7145
 Red. masses --      1.0645                 1.0628                 1.0932
 Frc consts  --      1.4100                 1.4123                 1.4701
 IR Inten    --     22.7501                 6.2119                 7.3869

                     82                     83                     84
                      A                      A                      A
 Frequencies --   1521.9469              1632.9209              2995.3404
 Red. masses --      4.0315                 5.6475                 1.0593
 Frc consts  --      5.5019                 8.8724                 5.5997
 IR Inten    --    293.6231               292.0878                27.0008

                     85                     86                     87
                      A                      A                      A
 Frequencies --   3017.7070              3018.4468              3021.8881
 Red. masses --      1.0357                 1.0362                 1.0500
 Frc consts  --      5.5569                 5.5624                 5.6496
 IR Inten    --     58.6083                15.0329                25.7425

                     88                     89                     90
                      A                      A                      A
 Frequencies --   3025.7072              3041.6889              3043.7144
 Red. masses --      1.0691                 1.1027                 1.0847
 Frc consts  --      5.7666                 6.0107                 5.9208
 IR Inten    --     23.4198                20.4777                11.5884

                     91                     92                     93
                      A                      A                      A
 Frequencies --   3063.5757              3066.8786              3084.2960
 Red. masses --      1.0844                 1.0428                 1.1063
 Frc consts  --      5.9967                 5.7791                 6.2009
 IR Inten    --      8.5493                15.6766                25.7114

                     94                     95                     96
                      A                      A                      A
 Frequencies --   3088.4749              3092.5992              3154.5598
 Red. masses --      1.1056                 1.1061                 1.0908
 Frc consts  --      6.2135                 6.2330                 6.3954
 IR Inten    --     25.0277                26.6855                 3.2210

                     97                     98                     99
                      A                      A                      A
 Frequencies --   3160.7372              3162.5708              3174.5657
 Red. masses --      1.0894                 1.1002                 1.1004
 Frc consts  --      6.4121                 6.4836                 6.5337
 IR Inten    --      1.0763                11.5504                 7.7449

                    100                    101                    102
                      A                      A                      A
 Frequencies --   3175.3416              3186.9181              3207.3495
 Red. masses --      1.1002                 1.0922                 1.1072
 Frc consts  --      6.5356                 6.5356                 6.7108
 IR Inten    --      3.2733                 1.5666                 1.9782

 - Thermochemistry -
 -------------------
 Temperature   298.150 Kelvin.  Pressure   1.00000 Atm.
 Atom     1 has atomic number  6 and mass  12.00000

 Molecular mass:   247.11816 amu.
 Principal axes and moments of inertia in atomic units:
                           1         2         3
     Eigenvalues --  2516.299904683.627325624.92309
           X            1.00000  -0.00195   0.00212
           Y            0.00189   0.99964   0.02688
           Z           -0.00217  -0.02688   0.99964
 This molecule is an asymmetric top.
 Rotational symmetry number  1.
 Warning -- assumption of classical behavior for rotation
           may cause significant error
 Rotational temperatures (Kelvin)      0.03442     0.01849     0.01540
 Rotational constants (GHZ):           0.71722     0.38533     0.32085
 Zero-point vibrational energy     804674.9 (Joules/Mol)
                                  192.32191 (Kcal/Mol)
 Warning -- explicit consideration of  26 degrees of freedom as
           vibrations may cause significant error
 Vibrational temperatures:     51.03    75.82    85.25   115.81   127.61
          (Kelvin)            139.86   150.93   172.19   232.01   253.70
                              263.56   286.86   321.59   342.15   385.03
                              406.47   436.17   458.47   484.04   508.66
                              533.21   566.34   624.21   692.07   754.66
                              871.68   904.87   950.75  1061.98  1081.08
                             1142.67  1185.40  1236.62  1303.46  1346.58
                             1381.35  1421.14  1450.62  1463.88  1500.53
                             1507.40  1513.67  1552.17  1569.86  1600.28
                             1648.83  1673.58  1688.54  1693.62  1695.43
                             1699.88  1712.22  1757.60  1762.55  1777.69
                             1782.05  1830.70  1852.53  1886.50  1899.92
                             1905.45  1947.00  1956.05  1988.07  2001.61
                             2015.50  2039.26  2053.70  2067.78  2074.56
                             2091.05  2117.33  2124.10  2126.78  2136.50
                             2141.84  2145.86  2146.96  2157.28  2160.75
                             2173.58  2189.74  2349.41  4309.62  4341.80
                             4342.87  4347.82  4353.31  4376.31  4379.22
                             4407.80  4412.55  4437.61  4443.62  4449.55
                             4538.70  4547.59  4550.23  4567.49  4568.60
                             4585.26  4614.65

 Zero-point correction=                           0.306484 (Hartree/Particle)
 Thermal correction to Energy=                    0.324386
 Thermal correction to Enthalpy=                  0.325330
 Thermal correction to Gibbs Free Energy=         0.260233
 Sum of electronic and zero-point Energies=           -880.626025
 Sum of electronic and thermal Energies=              -880.608124
 Sum of electronic and thermal Enthalpies=            -880.607180
 Sum of electronic and thermal Free Energies=         -880.672277

                     E (Thermal)             CV                S
                      KCal/Mol        Cal/Mol-Kelvin    Cal/Mol-Kelvin
 Total                  203.555             65.036            137.008
 Electronic               0.000              0.000              0.000
 Translational            0.889              2.981             42.415
 Rotational               0.889              2.981             32.561
 Vibrational            201.778             59.075             62.033
 Vibration     1          0.594              1.982              5.497
 Vibration     2          0.596              1.977              4.714
 Vibration     3          0.597              1.974              4.482
 Vibration     4          0.600              1.962              3.879
 Vibration     5          0.602              1.957              3.689
 Vibration     6          0.603              1.951              3.510
 Vibration     7          0.605              1.945              3.361
 Vibration     8          0.609              1.933              3.106
 Vibration     9          0.622              1.890              2.535
 Vibration    10          0.628              1.872              2.367
 Vibration    11          0.631              1.863              2.296
 Vibration    12          0.638              1.841              2.139
 Vibration    13          0.649              1.805              1.930
 Vibration    14          0.656              1.783              1.819
 Vibration    15          0.673              1.733              1.612
 Vibration    16          0.682              1.706              1.518
 Vibration    17          0.695              1.668              1.399
 Vibration    18          0.705              1.638              1.317
 Vibration    19          0.717              1.603              1.229
 Vibration    20          0.730              1.568              1.150
 Vibration    21          0.743              1.533              1.077
 Vibration    22          0.761              1.484              0.986
 Vibration    23          0.795              1.396              0.846
 Vibration    24          0.837              1.292              0.707
 Vibration    25          0.879              1.196              0.600
 Vibration    26          0.964              1.019              0.440

 Optimization completed.
    -- Stationary point found.
 Normal termination of Gaussian 09 at Mon Jan  9 14:57:36 2017.
