 Gaussian 09, Revision D.01,
 Gaussian 09:  EM64L-G09RevD.01 24-Apr-2013

 -------------------------------------------------------------------
 #P PBE1PBE/6-311+G(d,p) opt optcyc=999 freq EmpiricalDispersion=GD3
 -------------------------------------------------------------------

 -------
 disacch
 -------
 Symbolic Z-matrix:
 Charge =  1 Multiplicity = 1

 SCF Done:  E(RPBE1PBE) =  -880.909878649     A.U. after   21 cycles
 SCF Done:  E(RPBE1PBE) =  -880.914119632     A.U. after   18 cycles
 SCF Done:  E(RPBE1PBE) =  -880.914286284     A.U. after   17 cycles
 SCF Done:  E(RPBE1PBE) =  -880.915766879     A.U. after   19 cycles
 SCF Done:  E(RPBE1PBE) =  -880.916279521     A.U. after   16 cycles
 SCF Done:  E(RPBE1PBE) =  -880.916375671     A.U. after   12 cycles
 SCF Done:  E(RPBE1PBE) =  -880.916493634     A.U. after   19 cycles
 SCF Done:  E(RPBE1PBE) =  -880.916511906     A.U. after   13 cycles
 SCF Done:  E(RPBE1PBE) =  -880.916517751     A.U. after   16 cycles
 SCF Done:  E(RPBE1PBE) =  -880.916532861     A.U. after   18 cycles
 SCF Done:  E(RPBE1PBE) =  -880.916535194     A.U. after   15 cycles
 SCF Done:  E(RPBE1PBE) =  -880.916537241     A.U. after   17 cycles
 SCF Done:  E(RPBE1PBE) =  -880.916540417     A.U. after    9 cycles
 SCF Done:  E(RPBE1PBE) =  -880.916543802     A.U. after   15 cycles
 SCF Done:  E(RPBE1PBE) =  -880.916547078     A.U. after   14 cycles
 SCF Done:  E(RPBE1PBE) =  -880.916550132     A.U. after   13 cycles
 SCF Done:  E(RPBE1PBE) =  -880.916550499     A.U. after   16 cycles
 SCF Done:  E(RPBE1PBE) =  -880.916550436     A.U. after    8 cycles
 Optimization completed.
    -- Stationary point found.
 Normal termination of Gaussian 09 at Tue Oct 24 14:17:20 2017.

 ----------------------------------------------------------------------
 #P Geom=AllCheck Guess=TCheck SCRF=Check GenChk RPBE1PBE/6-311+G(d,p)
 Freq
 ----------------------------------------------------------------------

 Structure from the checkpoint file:  "Ac-4_cGalMe.chk"
 -------
 disacch
 -------
 Charge =  1 Multiplicity = 1

                         Standard orientation:
 ---------------------------------------------------------------------
 Center     Atomic      Atomic             Coordinates (Angstroms)
 Number     Number       Type             X           Y           Z
 ---------------------------------------------------------------------
      1          6           0       -0.328680   -1.272177   -1.579175
      2          6           0        0.148654    0.167491   -1.393065
      3          6           0        0.699924    0.487493   -0.002983
      4          6           0       -0.289431    0.118486    1.107588
      5          6           0       -1.737244    0.492515    0.716821
      6          6           0       -1.975539    0.325102   -0.784106
      7          8           0       -1.057719    0.919470   -1.584123
      8          8           0       -0.290971   -1.275140    1.339160
      9          8           0        1.908380   -0.215188    0.228008
     10          8           0       -1.750174   -1.148386   -1.200915
     11          1           0        0.150508   -1.976376   -0.901485
     12          1           0       -0.319380   -1.600180   -2.617051
     13          1           0        0.857284    0.475739   -2.159936
     14          1           0        0.890030    1.564548    0.003688
     15          1           0       -0.033732    0.656234    2.028317
     16          1           0       -2.384879   -0.206091    1.254088
     17          1           0       -2.990119    0.576381   -1.093628
     18          8           0       -2.192364    1.759823    1.086268
     19          6           0       -2.436605   -2.268934   -0.567461
     20          1           0       -3.474000   -1.959423   -0.450426
     21          1           0       -2.371175   -3.100003   -1.267898
     22          1           0       -1.955970   -2.482616    0.385476
     23          6           0       -1.379456    2.898620    0.823857
     24          1           0       -0.448847    2.869041    1.402138
     25          1           0       -1.155377    3.015871   -0.240360
     26          1           0       -1.963637    3.753228    1.161558
     27          6           0        0.478462   -1.700612    2.460479
     28          1           0        1.535128   -1.458416    2.326128
     29          1           0        0.101632   -1.241257    3.381261
     30          1           0        0.358322   -2.781968    2.527553
     31          6           0        3.033018    0.333532   -0.335821
     32          8           0        2.974268    1.293504   -1.049551
     33          6           0        4.255062   -0.413766    0.075842
     34          1           0        4.104878   -1.489788   -0.030390
     35          1           0        4.458167   -0.211263    1.131516
     36          1           0        5.100812   -0.082837   -0.523191
 ---------------------------------------------------------------------

 SCF Done:  E(RPBE1PBE) =  -880.916550436     A.U. after    6 cycles

 The electronic state is 1-A.
 Alpha  occ. eigenvalues --  -19.49165 -19.41097 -19.38770 -19.36037 -19.35679
 Alpha  occ. eigenvalues --  -19.32134 -10.51839 -10.48158 -10.46335 -10.45474
 Alpha  occ. eigenvalues --  -10.45256 -10.44106 -10.43663 -10.43597 -10.38903
 Alpha  occ. eigenvalues --  -10.38630 -10.34262  -1.35495  -1.28043  -1.26881
 Alpha  occ. eigenvalues --   -1.22593  -1.21451  -1.18627  -1.00593  -0.98132
 Alpha  occ. eigenvalues --   -0.95099  -0.90951  -0.88218  -0.86476  -0.83744
 Alpha  occ. eigenvalues --   -0.82999  -0.80804  -0.76512  -0.74697  -0.73802
 Alpha  occ. eigenvalues --   -0.71295  -0.68314  -0.68169  -0.66963  -0.65876
 Alpha  occ. eigenvalues --   -0.65138  -0.63623  -0.63230  -0.62144  -0.62130
 Alpha  occ. eigenvalues --   -0.60885  -0.59949  -0.59852  -0.59197  -0.58412
 Alpha  occ. eigenvalues --   -0.57079  -0.56006  -0.55602  -0.53712  -0.53324
 Alpha  occ. eigenvalues --   -0.52847  -0.52103  -0.51693  -0.50715  -0.48938
 Alpha  occ. eigenvalues --   -0.48040  -0.46780  -0.45499  -0.42525  -0.42243
 Alpha  occ. eigenvalues --   -0.41054
 Alpha virt. eigenvalues --   -0.13884  -0.11921  -0.11764  -0.11197  -0.10147
 Alpha virt. eigenvalues --   -0.09308  -0.09192  -0.08314  -0.07070  -0.06996
 Alpha virt. eigenvalues --   -0.06499  -0.06195  -0.05659  -0.04624  -0.03991

 Mulliken charges:
               1
     1  C   -0.245207
     2  C   -0.149733
     3  C   -0.173383
     4  C   -1.053196
     5  C   -0.208812
     6  C   -0.516240
     7  O    0.050049
     8  O   -0.039502
     9  O    0.172805
    10  O    0.111979
    11  H    0.274100
    12  H    0.257441
    13  H    0.279096
    14  H    0.261642
    15  H    0.250157
    16  H    0.254266
    17  H    0.285888
    18  O    0.045998
    19  C   -0.329522
    20  H    0.223334
    21  H    0.218749
    22  H    0.276757
    23  C   -0.352632
    24  H    0.185010
    25  H    0.201009
    26  H    0.213018
    27  C   -0.249384
    28  H    0.196527
    29  H    0.184081
    30  H    0.185065
    31  C    0.470467
    32  O   -0.205447
    33  C   -0.713101
    34  H    0.199691
    35  H    0.214646
    36  H    0.224387
 Sum of Mulliken charges =   1.00000

 Dipole moment (field-independent basis, Debye):
    X=             -2.6264    Y=             -5.0318    Z=             -0.2060  Tot=              5.6797
 Quadrupole moment (field-independent basis, Debye-Ang):
   XX=            -72.4005   YY=            -81.1770   ZZ=            -88.2480
   XY=              2.1803   XZ=              8.8199   YZ=              6.7912

  Exact polarizability: 149.724  -0.873 140.026  -0.763  -2.351 124.249
 Approx polarizability: 187.170  -0.032 195.275  -3.788  -9.056 174.682

                      1                      2                      3
                      A                      A                      A
 Frequencies --     56.3024                60.8553                81.8576
 Red. masses --      4.8511                 2.4750                 1.3359
 Frc consts  --      0.0091                 0.0054                 0.0053
 IR Inten    --      1.5105                 2.7757                 0.3906

                      4                      5                      6
                      A                      A                      A
 Frequencies --     94.3280               104.6559               111.6412
 Red. masses --      3.6749                 3.7893                 2.7639
 Frc consts  --      0.0193                 0.0245                 0.0203
 IR Inten    --      1.8466                 3.0711                 1.9096

                      7                      8                      9
                      A                      A                      A
 Frequencies --    126.2975               149.4000               160.6317
 Red. masses --      2.2265                 2.9840                 1.5575
 Frc consts  --      0.0209                 0.0392                 0.0237
 IR Inten    --      2.2512                 3.9435                 1.4512

                     10                     11                     12
                      A                      A                      A
 Frequencies --    178.5809               202.7491               205.3129
 Red. masses --      2.9393                 1.0423                 1.6354
 Frc consts  --      0.0552                 0.0252                 0.0406
 IR Inten    --      9.5239                 0.1929                 2.1122

                     13                     14                     15
                      A                      A                      A
 Frequencies --    211.1157               248.6869               254.9875
 Red. masses --      3.0935                 3.0383                 3.1054
 Frc consts  --      0.0812                 0.1107                 0.1190
 IR Inten    --      4.6907                 2.9279                 5.1099

                     16                     17                     18
                      A                      A                      A
 Frequencies --    277.7195               293.9149               303.8091
 Red. masses --      5.1144                 3.4011                 3.1832
 Frc consts  --      0.2324                 0.1731                 0.1731
 IR Inten    --      0.3578                16.9580                 4.1461

                     19                     20                     21
                      A                      A                      A
 Frequencies --    337.8193               367.5250               378.7786
 Red. masses --      3.5543                 4.4021                 4.9021
 Frc consts  --      0.2390                 0.3503                 0.4144
 IR Inten    --      8.0643                 2.1747                 3.0668

                     22                     23                     24
                      A                      A                      A
 Frequencies --    437.4953               468.4879               512.2150
 Red. masses --      3.6888                 5.2280                 4.8861
 Frc consts  --      0.4160                 0.6761                 0.7553
 IR Inten    --      7.4591                 0.6594                22.5718

                     25                     26                     27
                      A                      A                      A
 Frequencies --    527.0561               557.1978               606.9813
 Red. masses --      4.6656                 4.5978                 2.6990
 Frc consts  --      0.7636                 0.8410                 0.5859
 IR Inten    --     16.5804                36.9091                 6.2412

                     28                     29                     30
                      A                      A                      A
 Frequencies --    642.9311               671.6300               730.1972
 Red. masses --      6.4928                 5.4207                 4.3872
 Frc consts  --      1.5813                 1.4407                 1.3782
 IR Inten    --     36.7396                 9.3099                38.5456

                     31                     32                     33
                      A                      A                      A
 Frequencies --    752.9541               818.9577               861.9796
 Red. masses --      4.7127                 3.7089                 3.6177
 Frc consts  --      1.5742                 1.4656                 1.5837
 IR Inten    --     82.5097                 3.6481                13.5930

                     34                     35                     36
                      A                      A                      A
 Frequencies --    897.5972               916.1916               932.6589
 Red. masses --      4.2926                 3.5806                 3.7089
 Frc consts  --      2.0376                 1.7708                 1.9008
 IR Inten    --     20.4922                47.1825                14.6779

                     37                     38                     39
                      A                      A                      A
 Frequencies --    952.3666               969.6315              1006.7544
 Red. masses --      2.8981                 3.9783                 1.9725
 Frc consts  --      1.5487                 2.2037                 1.1779
 IR Inten    --     14.9949                84.5536                 8.6400

                     40                     41                     42
                      A                      A                      A
 Frequencies --   1023.3300              1035.1475              1058.8842
 Red. masses --      2.1669                 4.0006                 2.5630
 Frc consts  --      1.3369                 2.5257                 1.6931
 IR Inten    --     32.0208                23.8285                48.0501

                     43                     44                     45
                      A                      A                      A
 Frequencies --   1064.0847              1070.6237              1099.5411
 Red. masses --      2.3447                 2.5625                 2.1150
 Frc consts  --      1.5642                 1.7306                 1.5066
 IR Inten    --     10.1522                16.8312                96.9838

                     46                     47                     48
                      A                      A                      A
 Frequencies --   1127.6011              1138.2449              1168.1173
 Red. masses --      4.6687                 3.0576                 1.8173
 Frc consts  --      3.4975                 2.3340                 1.4610
 IR Inten    --     74.7844               109.0272                89.5057

                     49                     50                     51
                      A                      A                      A
 Frequencies --   1173.0600              1176.8138              1179.9530
 Red. masses --      1.4239                 1.2627                 1.4650
 Frc consts  --      1.1545                 1.0303                 1.2017
 IR Inten    --     17.3598                 0.3940                25.1376

                     52                     53                     54
                      A                      A                      A
 Frequencies --   1183.4844              1200.8730              1219.5073
 Red. masses --      1.7903                 1.6270                 1.6216
 Frc consts  --      1.4774                 1.3824                 1.4209
 IR Inten    --     30.8940                37.9322                44.3752

                     55                     56                     57
                      A                      A                      A
 Frequencies --   1223.2889              1231.1553              1238.4057
 Red. masses --      1.7371                 1.8262                 2.4063
 Frc consts  --      1.5316                 1.6309                 2.1743
 IR Inten    --     21.3293               160.3915               282.3611

                     58                     59                     60
                      A                      A                      A
 Frequencies --   1250.6281              1263.4649              1284.3729
 Red. masses --      1.8698                 1.4444                 1.6610
 Frc consts  --      1.7231                 1.3585                 1.6144
 IR Inten    --      5.3090                14.1284                32.4817

                     61                     62                     63
                      A                      A                      A
 Frequencies --   1327.3013              1345.4608              1355.0182
 Red. masses --      1.3178                 1.4412                 1.4428
 Frc consts  --      1.3679                 1.5371                 1.5608
 IR Inten    --     11.3015                22.5895                 6.3146

                     64                     65                     66
                      A                      A                      A
 Frequencies --   1370.1995              1383.1034              1397.8716
 Red. masses --      1.3961                 1.3554                 1.3693
 Frc consts  --      1.5443                 1.5276                 1.5765
 IR Inten    --      2.4312                 4.0156                68.8383

                     67                     68                     69
                      A                      A                      A
 Frequencies --   1405.3233              1406.0031              1411.4802
 Red. masses --      1.3022                 1.4791                 1.6312
 Frc consts  --      1.5152                 1.7227                 1.9147
 IR Inten    --     13.4617                 1.4708                19.1903

                     70                     71                     72
                      A                      A                      A
 Frequencies --   1433.9920              1458.8544              1460.2311
 Red. masses --      1.6043                 1.1313                 1.0477
 Frc consts  --      1.9437                 1.4186                 1.3162
 IR Inten    --      8.3146                 5.2268                12.9331

                     73                     74                     75
                      A                      A                      A
 Frequencies --   1468.3054              1471.5819              1475.5392
 Red. masses --      1.0508                 1.0622                 1.1429
 Frc consts  --      1.3347                 1.3553                 1.4661
 IR Inten    --     16.2876                17.2065                 6.1972

                     76                     77                     78
                      A                      A                      A
 Frequencies --   1476.8000              1485.3910              1494.6921
 Red. masses --      1.1370                 1.0445                 1.0943
 Frc consts  --      1.4611                 1.3579                 1.4404
 IR Inten    --      2.4117                 8.5870                 7.3526

                     79                     80                     81
                      A                      A                      A
 Frequencies --   1498.0153              1504.2390              1506.2043
 Red. masses --      1.0454                 1.0502                 1.0521
 Frc consts  --      1.3822                 1.4001                 1.4063
 IR Inten    --     12.8764                17.3315                 1.0474

                     82                     83                     84
                      A                      A                      A
 Frequencies --   1507.4571              1860.5908              3035.7357
 Red. masses --      1.0512                11.6723                 1.0364
 Frc consts  --      1.4075                23.8073                 5.6274
 IR Inten    --     26.3429               236.1188                25.6383

                     85                     86                     87
                      A                      A                      A
 Frequencies --   3041.4075              3063.6221              3074.1814
 Red. masses --      1.0355                 1.0860                 1.0383
 Frc consts  --      5.6438                 6.0057                 5.7814
 IR Inten    --     35.0680                 9.4254                 1.5826

                     88                     89                     90
                      A                      A                      A
 Frequencies --   3088.2007              3098.5814              3105.6035
 Red. masses --      1.0276                 1.0851                 1.0844
 Frc consts  --      5.7739                 6.1382                 6.1624
 IR Inten    --      6.5394                 7.1376                 5.4212

                     91                     92                     93
                      A                      A                      A
 Frequencies --   3116.7671              3126.9225              3129.0689
 Red. masses --      1.1040                 1.0577                 1.1009
 Frc consts  --      6.3185                 6.0930                 6.3508
 IR Inten    --     17.0584                 5.2229                13.6032

                     94                     95                     96
                      A                      A                      A
 Frequencies --   3148.8592              3164.2975              3167.2027
 Red. masses --      1.0985                 1.0901                 1.1052
 Frc consts  --      6.4173                 6.4310                 6.5319
 IR Inten    --      0.7416                 0.2707                 8.8148

                     97                     98                     99
                      A                      A                      A
 Frequencies --   3167.8978              3174.4837              3198.5449
 Red. masses --      1.0932                 1.1016                 1.1043
 Frc consts  --      6.4640                 6.5404                 6.6564
 IR Inten    --      1.8932                 4.7326                 0.5323

                    100                    101                    102
                      A                      A                      A
 Frequencies --   3203.7443              3209.8558              3211.2052
 Red. masses --      1.1103                 1.1143                 1.1134
 Frc consts  --      6.7141                 6.7644                 6.7647
 IR Inten    --      0.0735                 2.3016                 3.9946

 - Thermochemistry -
 -------------------
 Temperature   298.150 Kelvin.  Pressure   1.00000 Atm.
 Atom     1 has atomic number  6 and mass  12.00000

 Molecular mass:   247.11816 amu.
 Principal axes and moments of inertia in atomic units:
                           1         2         3
     Eigenvalues --  2809.162274701.067665037.59314
           X            0.99991  -0.00630   0.01153
           Y            0.00606   0.99977   0.02047
           Z           -0.01166  -0.02040   0.99972
 This molecule is an asymmetric top.
 Rotational symmetry number  1.
 Warning -- assumption of classical behavior for rotation
           may cause significant error
 Rotational temperatures (Kelvin)      0.03083     0.01842     0.01719
 Rotational constants (GHZ):           0.64245     0.38390     0.35825
 Zero-point vibrational energy     806945.0 (Joules/Mol)
                                  192.86449 (Kcal/Mol)
 Warning -- explicit consideration of  27 degrees of freedom as
           vibrations may cause significant error
 Vibrational temperatures:     81.01    87.56   117.77   135.72   150.58
          (Kelvin)            160.63   181.71   214.95   231.11   256.94
                              291.71   295.40   303.75   357.80   366.87
                              399.58   422.88   437.11   486.05   528.79
                              544.98   629.46   674.05   736.96   758.32
                              801.68   873.31   925.03   966.32  1050.59
                             1083.33  1178.30  1240.19  1291.44  1318.19
                             1341.89  1370.24  1395.08  1448.49  1472.34
                             1489.34  1523.50  1530.98  1540.39  1581.99
                             1622.36  1637.68  1680.66  1687.77  1693.17
                             1697.69  1702.77  1727.79  1754.60  1760.04
                             1771.36  1781.79  1799.37  1817.84  1847.92
                             1909.69  1935.82  1949.57  1971.41  1989.97
                             2011.22  2021.94  2022.92  2030.80  2063.19
                             2098.96  2100.94  2112.56  2117.28  2122.97
                             2124.78  2137.14  2150.53  2155.31  2164.26
                             2167.09  2168.89  2676.97  4367.74  4375.90
                             4407.86  4423.06  4443.23  4458.16  4468.27
                             4484.33  4498.94  4502.03  4530.50  4552.71
                             4556.89  4557.89  4567.37  4601.99  4609.47
                             4618.26  4620.20

 Zero-point correction=                           0.307349 (Hartree/Particle)
 Thermal correction to Energy=                    0.325003
 Thermal correction to Enthalpy=                  0.325947
 Thermal correction to Gibbs Free Energy=         0.262529
 Sum of electronic and zero-point Energies=           -880.609201
 Sum of electronic and thermal Energies=              -880.591547
 Sum of electronic and thermal Enthalpies=            -880.590603
 Sum of electronic and thermal Free Energies=         -880.654021

                     E (Thermal)             CV                S
                      KCal/Mol        Cal/Mol-Kelvin    Cal/Mol-Kelvin
 Total                  203.943             65.520            133.475
 Electronic               0.000              0.000              0.000
 Translational            0.889              2.981             42.415
 Rotational               0.889              2.981             32.564
 Vibrational            202.165             59.558             58.496
 Vibration     1          0.596              1.975              4.583
 Vibration     2          0.597              1.973              4.429
 Vibration     3          0.600              1.962              3.846
 Vibration     4          0.603              1.953              3.568
 Vibration     5          0.605              1.946              3.366
 Vibration     6          0.607              1.940              3.240
 Vibration     7          0.611              1.927              3.002
 Vibration     8          0.618              1.903              2.680
 Vibration     9          0.622              1.891              2.542
 Vibration    10          0.629              1.869              2.343
 Vibration    11          0.639              1.836              2.108
 Vibration    12          0.640              1.832              2.085
 Vibration    13          0.643              1.824              2.034
 Vibration    14          0.662              1.765              1.740
 Vibration    15          0.665              1.754              1.696
 Vibration    16          0.679              1.715              1.548
 Vibration    17          0.689              1.685              1.451
 Vibration    18          0.695              1.666              1.396
 Vibration    19          0.718              1.600              1.222
 Vibration    20          0.740              1.539              1.090
 Vibration    21          0.749              1.515              1.044
 Vibration    22          0.798              1.388              0.835
 Vibration    23          0.826              1.320              0.742
 Vibration    24          0.867              1.223              0.628
 Vibration    25          0.882              1.190              0.594
 Vibration    26          0.913              1.124              0.529
 Vibration    27          0.966              1.017              0.438

 Normal termination of Gaussian 09 at Tue Oct 24 14:36:47 2017.
