 Gaussian 09, Revision D.01,
 Gaussian 09:  EM64L-G09RevD.01 24-Apr-2013

 -------------------------------------------------------------------
 #P PBE1PBE/6-311+G(d,p) opt optcyc=999 freq EmpiricalDispersion=GD3
 -------------------------------------------------------------------

 -------
 disacch
 -------
 Symbolic Z-matrix:
 Charge =  1 Multiplicity = 1

 SCF Done:  E(RPBE1PBE) =  -880.915213941     A.U. after   15 cycles
 SCF Done:  E(RPBE1PBE) =  -880.919297247     A.U. after   17 cycles
 SCF Done:  E(RPBE1PBE) =  -880.918925532     A.U. after   13 cycles
 SCF Done:  E(RPBE1PBE) =  -880.920051426     A.U. after   12 cycles
 SCF Done:  E(RPBE1PBE) =  -880.920710908     A.U. after   16 cycles
 SCF Done:  E(RPBE1PBE) =  -880.921004776     A.U. after   14 cycles
 SCF Done:  E(RPBE1PBE) =  -880.920991796     A.U. after   15 cycles
 SCF Done:  E(RPBE1PBE) =  -880.921091752     A.U. after   13 cycles
 SCF Done:  E(RPBE1PBE) =  -880.921166225     A.U. after   11 cycles
 SCF Done:  E(RPBE1PBE) =  -880.921176576     A.U. after   10 cycles
 SCF Done:  E(RPBE1PBE) =  -880.921181920     A.U. after   10 cycles
 SCF Done:  E(RPBE1PBE) =  -880.921185289     A.U. after   11 cycles
 SCF Done:  E(RPBE1PBE) =  -880.921187699     A.U. after   11 cycles
 SCF Done:  E(RPBE1PBE) =  -880.921189801     A.U. after   13 cycles
 SCF Done:  E(RPBE1PBE) =  -880.921192555     A.U. after    9 cycles
 SCF Done:  E(RPBE1PBE) =  -880.921194660     A.U. after   11 cycles
 SCF Done:  E(RPBE1PBE) =  -880.921195061     A.U. after   11 cycles
 SCF Done:  E(RPBE1PBE) =  -880.921194982     A.U. after    9 cycles
 Optimization completed.
    -- Stationary point found.
 Normal termination of Gaussian 09 at Mon Jan  9 20:09:48 2017.

 ----------------------------------------------------------------------
 #P Geom=AllCheck Guess=TCheck SCRF=Check GenChk RPBE1PBE/6-311+G(d,p)
 Freq
 ----------------------------------------------------------------------

 Structure from the checkpoint file:  "Ac-4_cGalMe.chk"
 -------
 disacch
 -------
 Charge =  1 Multiplicity = 1

                         Standard orientation:
 ---------------------------------------------------------------------
 Center     Atomic      Atomic             Coordinates (Angstroms)
 Number     Number       Type             X           Y           Z
 ---------------------------------------------------------------------
      1          6           0       -0.072018   -2.061003   -0.358533
      2          6           0        0.350693   -0.850883   -1.190616
      3          6           0        0.742961    0.386055   -0.381846
      4          6           0       -0.331319    0.764697    0.639823
      5          6           0       -1.720213    0.680245   -0.021397
      6          6           0       -1.823151   -0.502865   -0.982058
      7          8           0       -0.848552   -0.549880   -1.916248
      8          8           0       -0.335947   -0.100634    1.753762
      9          8           0        1.956205    0.171589    0.318682
     10          8           0       -1.526463   -1.820020   -0.240344
     11          1           0        0.357892   -2.076363    0.640857
     12          1           0        0.033174   -3.006467   -0.887582
     13          1           0        1.126277   -1.090727   -1.915807
     14          1           0        0.856655    1.197424   -1.107677
     15          1           0       -0.170864    1.799915    0.963733
     16          1           0       -2.470846    0.576625    0.775613
     17          1           0       -2.808238   -0.616560   -1.433413
     18          8           0       -1.984550    1.770385   -0.850205
     19          6           0       -2.258455   -2.260031    0.941057
     20          1           0       -3.308708   -2.057271    0.736673
     21          1           0       -2.094324   -3.333665    1.017611
     22          1           0       -1.888948   -1.714814    1.807242
     23          6           0       -2.571805    2.883090   -0.190593
     24          1           0       -3.549841    2.618178    0.228371
     25          1           0       -1.925183    3.267584    0.607031
     26          1           0       -2.699725    3.656268   -0.946469
     27          6           0        0.349765    0.391650    2.901344
     28          1           0        1.413181    0.528942    2.693893
     29          1           0       -0.090992    1.338126    3.235382
     30          1           0        0.222811   -0.354774    3.685631
     31          6           0        3.104409    0.285568   -0.424182
     32          8           0        3.073480    0.460929   -1.608057
     33          6           0        4.312793    0.172673    0.441706
     34          1           0        4.225148   -0.677761    1.120510
     35          1           0        4.399141    1.075950    1.052651
     36          1           0        5.198051    0.075269   -0.183202
 ---------------------------------------------------------------------

 SCF Done:  E(RPBE1PBE) =  -880.921194983     A.U. after    2 cycles

 The electronic state is 1-A.
 Alpha  occ. eigenvalues --  -19.48967 -19.40366 -19.38297 -19.35990 -19.35851
 Alpha  occ. eigenvalues --  -19.31633 -10.51768 -10.47673 -10.46045 -10.45163
 Alpha  occ. eigenvalues --  -10.44902 -10.44102 -10.43154 -10.43056 -10.38920
 Alpha  occ. eigenvalues --  -10.38841 -10.33897  -1.35308  -1.27543  -1.26457
 Alpha  occ. eigenvalues --   -1.22796  -1.21682  -1.18173  -1.00225  -0.98168
 Alpha  occ. eigenvalues --   -0.94894  -0.90543  -0.87708  -0.86167  -0.83525
 Alpha  occ. eigenvalues --   -0.82485  -0.80837  -0.76102  -0.74749  -0.73649
 Alpha  occ. eigenvalues --   -0.70993  -0.68015  -0.67803  -0.66924  -0.65715
 Alpha  occ. eigenvalues --   -0.64782  -0.63443  -0.62701  -0.62444  -0.61763
 Alpha  occ. eigenvalues --   -0.60716  -0.59668  -0.59618  -0.59068  -0.58322
 Alpha  occ. eigenvalues --   -0.56592  -0.55876  -0.55291  -0.53680  -0.53233
 Alpha  occ. eigenvalues --   -0.52269  -0.51947  -0.51018  -0.50265  -0.48501
 Alpha  occ. eigenvalues --   -0.47802  -0.47250  -0.44965  -0.42778  -0.41820
 Alpha  occ. eigenvalues --   -0.41075
 Alpha virt. eigenvalues --   -0.13572  -0.11912  -0.11371  -0.10647  -0.09962
 Alpha virt. eigenvalues --   -0.09555  -0.09223  -0.07919  -0.07196  -0.07002
 Alpha virt. eigenvalues --   -0.06273  -0.06118  -0.05487  -0.05101  -0.04234

 Mulliken charges:
               1
     1  C   -0.261454
     2  C   -0.172242
     3  C   -0.648737
     4  C   -0.561101
     5  C   -0.156918
     6  C   -0.515312
     7  O    0.082052
     8  O   -0.018277
     9  O    0.166167
    10  O    0.136287
    11  H    0.274602
    12  H    0.257041
    13  H    0.279363
    14  H    0.282391
    15  H    0.217712
    16  H    0.222102
    17  H    0.283983
    18  O    0.018660
    19  C   -0.320032
    20  H    0.221591
    21  H    0.221053
    22  H    0.275786
    23  C   -0.270439
    24  H    0.176311
    25  H    0.166516
    26  H    0.203591
    27  C   -0.254436
    28  H    0.202448
    29  H    0.181243
    30  H    0.185360
    31  C    0.428313
    32  O   -0.212711
    33  C   -0.725980
    34  H    0.197411
    35  H    0.213971
    36  H    0.223688
 Sum of Mulliken charges =   1.00000

 Dipole moment (field-independent basis, Debye):
    X=             -3.9540    Y=             -3.4606    Z=              4.5704  Tot=              6.9641
 Quadrupole moment (field-independent basis, Debye-Ang):
   XX=            -66.5313   YY=            -73.2510   ZZ=            -96.3380
   XY=              2.0840   XZ=              3.8048   YZ=              2.8012

  Exact polarizability: 153.278  -2.241 131.786  -0.090  -2.999 131.722
 Approx polarizability: 187.130  -1.740 175.638  -2.255  -8.383 193.471

                      1                      2                      3
                      A                      A                      A
 Frequencies --     50.1246                56.4260                77.9379
 Red. masses --      4.5922                 2.0320                 1.5180
 Frc consts  --      0.0068                 0.0038                 0.0054
 IR Inten    --      0.2163                 2.9872                 0.4984

                      4                      5                      6
                      A                      A                      A
 Frequencies --     83.8519                87.7139                98.7674
 Red. masses --      2.4222                 3.8098                 3.1382
 Frc consts  --      0.0100                 0.0173                 0.0180
 IR Inten    --      2.4540                 0.4785                 0.2795

                      7                      8                      9
                      A                      A                      A
 Frequencies --    116.1625               142.9150               158.4903
 Red. masses --      2.0868                 2.2393                 1.7464
 Frc consts  --      0.0166                 0.0269                 0.0258
 IR Inten    --      3.5817                 2.8107                 1.2216

                     10                     11                     12
                      A                      A                      A
 Frequencies --    158.9315               177.0369               182.5372
 Red. masses --      1.6745                 2.6231                 1.1355
 Frc consts  --      0.0249                 0.0484                 0.0223
 IR Inten    --      0.8900                 8.1223                 0.8689

                     13                     14                     15
                      A                      A                      A
 Frequencies --    204.3672               234.7692               252.9208
 Red. masses --      3.2844                 3.2602                 3.6485
 Frc consts  --      0.0808                 0.1059                 0.1375
 IR Inten    --      9.5131                 4.9398                 2.0899

                     16                     17                     18
                      A                      A                      A
 Frequencies --    268.8437               293.2037               311.8269
 Red. masses --      4.8745                 3.3509                 3.6682
 Frc consts  --      0.2076                 0.1697                 0.2101
 IR Inten    --      2.1128                14.2362                 0.2751

                     19                     20                     21
                      A                      A                      A
 Frequencies --    332.1765               375.1320               381.6930
 Red. masses --      3.5854                 4.9061                 4.3688
 Frc consts  --      0.2331                 0.4068                 0.3750
 IR Inten    --     11.0537                 1.7834                 2.8020

                     22                     23                     24
                      A                      A                      A
 Frequencies --    431.2320               492.7003               502.0946
 Red. masses --      3.6655                 4.6063                 5.0196
 Frc consts  --      0.4016                 0.6588                 0.7456
 IR Inten    --      8.7255                 3.6044                33.2094

                     25                     26                     27
                      A                      A                      A
 Frequencies --    519.3233               559.3008               605.9509
 Red. masses --      4.4671                 4.7536                 2.6850
 Frc consts  --      0.7098                 0.8761                 0.5809
 IR Inten    --      6.8919                10.2256                 8.1019

                     28                     29                     30
                      A                      A                      A
 Frequencies --    646.8605               670.0337               729.1837
 Red. masses --      6.4387                 5.4850                 4.1791
 Frc consts  --      1.5873                 1.4508                 1.3092
 IR Inten    --     37.0539                11.1622                 8.1908

                     31                     32                     33
                      A                      A                      A
 Frequencies --    748.0649               817.1175               867.7471
 Red. masses --      5.1587                 3.6750                 3.7130
 Frc consts  --      1.7009                 1.4457                 1.6473
 IR Inten    --    112.6809                 3.7050                17.8422

                     34                     35                     36
                      A                      A                      A
 Frequencies --    896.0450               916.0736               947.1428
 Red. masses --      3.5976                 3.7164                 3.3421
 Frc consts  --      1.7018                 1.8375                 1.7664
 IR Inten    --     18.4160                55.2855                49.8916

                     37                     38                     39
                      A                      A                      A
 Frequencies --    952.9242              1000.0492              1011.8434
 Red. masses --      2.7277                 2.6458                 2.3688
 Frc consts  --      1.4593                 1.5590                 1.4289
 IR Inten    --     17.8827                13.7456                 1.9814

                     40                     41                     42
                      A                      A                      A
 Frequencies --   1033.2807              1037.4228              1060.3731
 Red. masses --      2.5863                 3.2604                 2.1200
 Frc consts  --      1.6269                 2.0674                 1.4045
 IR Inten    --     26.9318                28.8316                32.7681

                     43                     44                     45
                      A                      A                      A
 Frequencies --   1066.2312              1069.3505              1099.1538
 Red. masses --      2.9402                 2.5983                 2.2422
 Frc consts  --      1.9694                 1.7506                 1.5961
 IR Inten    --     18.7239                17.0307               124.1044

                     46                     47                     48
                      A                      A                      A
 Frequencies --   1124.6939              1139.9941              1165.4011
 Red. masses --      4.2664                 2.9730                 2.0341
 Frc consts  --      3.1797                 2.2764                 1.6277
 IR Inten    --     87.3392               122.1947                69.0736

                     49                     50                     51
                      A                      A                      A
 Frequencies --   1166.1980              1175.7977              1176.5174
 Red. masses --      1.4644                 1.2982                 1.3126
 Frc consts  --      1.1734                 1.0575                 1.0705
 IR Inten    --     51.6749                 4.0826                 8.8969

                     52                     53                     54
                      A                      A                      A
 Frequencies --   1182.6553              1200.9247              1218.7157
 Red. masses --      1.7000                 1.6115                 1.8440
 Frc consts  --      1.4010                 1.3694                 1.6136
 IR Inten    --     41.9714                43.0756                49.4868

                     55                     56                     57
                      A                      A                      A
 Frequencies --   1222.7445              1230.1367              1237.2463
 Red. masses --      1.6011                 1.7886                 2.3808
 Frc consts  --      1.4104                 1.5946                 2.1473
 IR Inten    --      8.9288               215.4431               303.3647

                     58                     59                     60
                      A                      A                      A
 Frequencies --   1249.6622              1265.3318              1286.4138
 Red. masses --      1.8474                 1.4652                 1.7039
 Frc consts  --      1.6998                 1.3821                 1.6614
 IR Inten    --     12.0595                12.1517                22.7558

                     61                     62                     63
                      A                      A                      A
 Frequencies --   1323.1817              1334.4006              1348.2219
 Red. masses --      1.2145                 1.4194                 1.4332
 Frc consts  --      1.2528                 1.4891                 1.5349
 IR Inten    --     10.8437                 1.4163                17.1678

                     64                     65                     66
                      A                      A                      A
 Frequencies --   1367.6768              1377.0881              1396.5726
 Red. masses --      1.3686                 1.5813                 1.3405
 Frc consts  --      1.5083                 1.7668                 1.5405
 IR Inten    --      1.8596                 2.2616                20.9728

                     67                     68                     69
                      A                      A                      A
 Frequencies --   1398.4969              1404.6677              1415.6575
 Red. masses --      1.3824                 1.5157                 1.6844
 Frc consts  --      1.5930                 1.7621                 1.9888
 IR Inten    --     81.4693                 7.7218                 2.2080

                     70                     71                     72
                      A                      A                      A
 Frequencies --   1435.7238              1453.4031              1460.5389
 Red. masses --      1.7055                 1.1329                 1.0463
 Frc consts  --      2.0713                 1.4099                 1.3151
 IR Inten    --      7.7095                 4.1099                13.7075

                     73                     74                     75
                      A                      A                      A
 Frequencies --   1468.4099              1470.1633              1473.2178
 Red. masses --      1.0511                 1.0651                 1.1256
 Frc consts  --      1.3353                 1.3563                 1.4393
 IR Inten    --     15.6069                16.8203                 5.7409

                     76                     77                     78
                      A                      A                      A
 Frequencies --   1475.8707              1484.2771              1490.6405
 Red. masses --      1.1486                 1.0446                 1.0467
 Frc consts  --      1.4740                 1.3559                 1.3703
 IR Inten    --      3.8423                 8.8581                16.1299

                     79                     80                     81
                      A                      A                      A
 Frequencies --   1492.7808              1498.4021              1503.9879
 Red. masses --      1.0958                 1.0686                 1.0517
 Frc consts  --      1.4387                 1.4135                 1.4016
 IR Inten    --      5.4879                16.9929                15.6362

                     82                     83                     84
                      A                      A                      A
 Frequencies --   1507.4143              1862.7402              3023.5895
 Red. masses --      1.0457                11.6999                 1.0374
 Frc consts  --      1.4000                23.9187                 5.5878
 IR Inten    --     10.0308               241.8927                26.4843

                     85                     86                     87
                      A                      A                      A
 Frequencies --   3032.8842              3038.7333              3062.9844
 Red. masses --      1.0817                 1.0369                 1.0857
 Frc consts  --      5.8624                 5.6414                 6.0014
 IR Inten    --     20.7444                35.4465                12.0658

                     88                     89                     90
                      A                      A                      A
 Frequencies --   3074.0491              3090.3212              3094.4700
 Red. masses --      1.0383                 1.0270                 1.1066
 Frc consts  --      5.7808                 5.7785                 6.2431
 IR Inten    --      1.4447                 8.9546                28.9013

                     91                     92                     93
                      A                      A                      A
 Frequencies --   3098.9187              3127.6729              3128.4190
 Red. masses --      1.0851                 1.0717                 1.0843
 Frc consts  --      6.1397                 6.1771                 6.2522
 IR Inten    --      3.6212                12.8271                 7.0788

                     94                     95                     96
                      A                      A                      A
 Frequencies --   3148.7271              3167.3874              3168.6227
 Red. masses --      1.0986                 1.1058                 1.0891
 Frc consts  --      6.4172                 6.5365                 6.4423
 IR Inten    --      0.8684                 8.0145                 0.5107

                     97                     98                     99
                      A                      A                      A
 Frequencies --   3172.0050              3176.9106              3197.9800
 Red. masses --      1.0940                 1.1005                 1.1042
 Frc consts  --      6.4856                 6.5441                 6.6537
 IR Inten    --      3.4181                 4.1914                 0.6120

                    100                    101                    102
                      A                      A                      A
 Frequencies --   3203.0334              3211.4364              3214.2949
 Red. masses --      1.1099                 1.1150                 1.1125
 Frc consts  --      6.7089                 6.7752                 6.7719
 IR Inten    --      0.0304                 1.2519                 5.6164

 - Thermochemistry -
 -------------------
 Temperature   298.150 Kelvin.  Pressure   1.00000 Atm.
 Atom     1 has atomic number  6 and mass  12.00000

 Molecular mass:   247.11816 amu.
 Principal axes and moments of inertia in atomic units:
                           1         2         3
     Eigenvalues --  2831.041034941.300025157.76381
           X            0.99992  -0.01133   0.00624
           Y            0.01122   0.99978   0.01797
           Z           -0.00644  -0.01790   0.99982
 This molecule is an asymmetric top.
 Rotational symmetry number  1.
 Warning -- assumption of classical behavior for rotation
           may cause significant error
 Rotational temperatures (Kelvin)      0.03059     0.01753     0.01679
 Rotational constants (GHZ):           0.63748     0.36524     0.34991
 Zero-point vibrational energy     805348.4 (Joules/Mol)
                                  192.48288 (Kcal/Mol)
 Warning -- explicit consideration of  27 degrees of freedom as
           vibrations may cause significant error
 Vibrational temperatures:     72.12    81.18   112.14   120.64   126.20
          (Kelvin)            142.10   167.13   205.62   228.03   228.67
                              254.72   262.63   294.04   337.78   363.90
                              386.81   421.85   448.65   477.93   539.73
                              549.17   620.45   708.88   722.40   747.19
                              804.71   871.83   930.69   964.03  1049.13
                             1076.30  1175.65  1248.49  1289.21  1318.02
                             1362.73  1371.04  1438.85  1455.82  1486.66
                             1492.62  1525.64  1534.07  1538.55  1581.44
                             1618.18  1640.20  1676.75  1677.90  1691.71
                             1692.74  1701.58  1727.86  1753.46  1759.25
                             1769.89  1780.12  1797.98  1820.53  1850.86
                             1903.76  1919.90  1939.79  1967.78  1981.32
                             2009.35  2012.12  2021.00  2036.81  2065.68
                             2091.12  2101.39  2112.71  2115.23  2119.63
                             2123.45  2135.54  2144.70  2147.78  2155.86
                             2163.90  2168.83  2680.06  4350.27  4363.64
                             4372.05  4406.95  4422.87  4446.28  4452.25
                             4458.65  4500.02  4501.09  4530.31  4557.16
                             4558.94  4563.80  4570.86  4601.17  4608.44
                             4620.53  4624.65

 Zero-point correction=                           0.306741 (Hartree/Particle)
 Thermal correction to Energy=                    0.324670
 Thermal correction to Enthalpy=                  0.325614
 Thermal correction to Gibbs Free Energy=         0.261016
 Sum of electronic and zero-point Energies=           -880.614454
 Sum of electronic and thermal Energies=              -880.596525
 Sum of electronic and thermal Enthalpies=            -880.595581
 Sum of electronic and thermal Free Energies=         -880.660179

                     E (Thermal)             CV                S
                      KCal/Mol        Cal/Mol-Kelvin    Cal/Mol-Kelvin
 Total                  203.734             65.652            135.959
 Electronic               0.000              0.000              0.000
 Translational            0.889              2.981             42.415
 Rotational               0.889              2.981             32.645
 Vibrational            201.956             59.690             60.899
 Vibration     1          0.595              1.978              4.812
 Vibration     2          0.596              1.975              4.578
 Vibration     3          0.599              1.964              3.942
 Vibration     4          0.601              1.960              3.799
 Vibration     5          0.601              1.958              3.710
 Vibration     6          0.604              1.950              3.479
 Vibration     7          0.608              1.936              3.163
 Vibration     8          0.616              1.910              2.764
 Vibration     9          0.621              1.893              2.568
 Vibration    10          0.621              1.893              2.562
 Vibration    11          0.628              1.871              2.359
 Vibration    12          0.630              1.864              2.302
 Vibration    13          0.640              1.834              2.093
 Vibration    14          0.655              1.788              1.842
 Vibration    15          0.664              1.758              1.710
 Vibration    16          0.673              1.730              1.604
 Vibration    17          0.688              1.686              1.455
 Vibration    18          0.700              1.651              1.353
 Vibration    19          0.714              1.611              1.249
 Vibration    20          0.746              1.523              1.059
 Vibration    21          0.751              1.509              1.032
 Vibration    22          0.792              1.402              0.855
 Vibration    23          0.848              1.266              0.677
 Vibration    24          0.857              1.245              0.653
 Vibration    25          0.874              1.207              0.612
 Vibration    26          0.915              1.119              0.525
 Vibration    27          0.965              1.019              0.440

 Normal termination of Gaussian 09 at Mon Jan  9 20:36:32 2017.
