 Gaussian 09, Revision D.01,
 Gaussian 09:  EM64L-G09RevD.01 24-Apr-2013

 -------------------------------------------------------------------
 #P PBE1PBE/6-311+G(d,p) opt optcyc=999 freq EmpiricalDispersion=GD3
 -------------------------------------------------------------------

 -------
 disacch
 -------
 Symbolic Z-matrix:
 Charge =  1 Multiplicity = 1

 SCF Done:  E(RPBE1PBE) =  -880.928322255     A.U. after   20 cycles
 SCF Done:  E(RPBE1PBE) =  -880.932503700     A.U. after   18 cycles
 SCF Done:  E(RPBE1PBE) =  -880.933062355     A.U. after   16 cycles
 SCF Done:  E(RPBE1PBE) =  -880.933297445     A.U. after   17 cycles
 SCF Done:  E(RPBE1PBE) =  -880.933382365     A.U. after   16 cycles
 SCF Done:  E(RPBE1PBE) =  -880.933417430     A.U. after   15 cycles
 SCF Done:  E(RPBE1PBE) =  -880.933421197     A.U. after   15 cycles
 SCF Done:  E(RPBE1PBE) =  -880.933422071     A.U. after   15 cycles
 SCF Done:  E(RPBE1PBE) =  -880.933422204     A.U. after    9 cycles
 SCF Done:  E(RPBE1PBE) =  -880.933422405     A.U. after   13 cycles
 SCF Done:  E(RPBE1PBE) =  -880.933422694     A.U. after    9 cycles
 SCF Done:  E(RPBE1PBE) =  -880.933423147     A.U. after   15 cycles
 SCF Done:  E(RPBE1PBE) =  -880.933423757     A.U. after   15 cycles
 SCF Done:  E(RPBE1PBE) =  -880.933424240     A.U. after   14 cycles
 SCF Done:  E(RPBE1PBE) =  -880.933424306     A.U. after   14 cycles
 Optimization completed.
    -- Stationary point found.
 Normal termination of Gaussian 09 at Sun Jan  8 11:20:58 2017.

 ----------------------------------------------------------------------
 #P Geom=AllCheck Guess=TCheck SCRF=Check GenChk RPBE1PBE/6-311+G(d,p)
 Freq
 ----------------------------------------------------------------------

 Structure from the checkpoint file:  "Ac-4_cGalMe.chk"
 -------
 disacch
 -------
 Charge =  1 Multiplicity = 1

                         Standard orientation:
 ---------------------------------------------------------------------
 Center     Atomic      Atomic             Coordinates (Angstroms)
 Number     Number       Type             X           Y           Z
 ---------------------------------------------------------------------
      1          6           0       -2.540899   -0.620452   -0.508768
      2          6           0       -1.057188   -0.858826   -0.308238
      3          6           0       -0.415196    0.102932    0.663781
      4          6           0        1.063215   -0.249139    0.908443
      5          6           0        1.679706   -0.825182   -0.382223
      6          6           0        0.865008   -0.360830   -1.577378
      7          8           0       -0.429263   -0.734859   -1.592053
      8          8           0        1.820598    0.858186    1.294895
      9          8           0       -0.497665    1.476894    0.140213
     10          8           0       -3.122529   -0.723791    0.756098
     11          1           0       -2.927071   -1.375344   -1.207872
     12          1           0       -2.710238    0.371536   -0.956635
     13          1           0       -0.895763   -1.873223    0.073692
     14          1           0       -1.005769    0.155788    1.576908
     15          1           0        1.076248   -1.038772    1.673486
     16          1           0        2.703174   -0.438616   -0.475486
     17          1           0        1.318405   -0.590063   -2.538290
     18          8           0        1.625688   -2.216789   -0.427913
     19          6           0       -4.536518   -0.654377    0.727149
     20          1           0       -4.880840   -0.739808    1.757048
     21          1           0       -4.876590    0.301851    0.309431
     22          1           0       -4.958470   -1.476253    0.135884
     23          6           0        2.701948   -2.860451    0.240625
     24          1           0        3.660343   -2.589395   -0.216598
     25          1           0        2.725996   -2.607923    1.307890
     26          1           0        2.537332   -3.931232    0.132380
     27          6           0        1.542984    1.334659    2.605418
     28          1           0        0.542382    1.778855    2.670623
     29          1           0        1.631696    0.525744    3.339758
     30          1           0        2.287930    2.098540    2.823612
     31          6           0        0.277817    1.901120   -0.787855
     32          8           0        0.961523    1.169561   -1.568385
     33          6           0        0.365091    3.362552   -0.961550
     34          1           0        1.189104    3.710749   -0.327310
     35          1           0       -0.553873    3.839100   -0.621594
     36          1           0        0.593373    3.612807   -1.996193
 ---------------------------------------------------------------------

 SCF Done:  E(RPBE1PBE) =  -880.933424306     A.U. after    2 cycles

 The electronic state is 1-A.
 Alpha  occ. eigenvalues --  -19.45647 -19.44961 -19.39718 -19.36781 -19.35717
 Alpha  occ. eigenvalues --  -19.33525 -10.57587 -10.50766 -10.45884 -10.44185
 Alpha  occ. eigenvalues --  -10.43838 -10.43722 -10.40176 -10.39637 -10.39145
 Alpha  occ. eigenvalues --  -10.38637 -10.36776  -1.37358  -1.29432  -1.26787
 Alpha  occ. eigenvalues --   -1.23357  -1.21899  -1.19951  -1.01720  -0.98854
 Alpha  occ. eigenvalues --   -0.95558  -0.89936  -0.88717  -0.86246  -0.82877
 Alpha  occ. eigenvalues --   -0.81882  -0.78875  -0.77680  -0.76261  -0.73436
 Alpha  occ. eigenvalues --   -0.72581  -0.68316  -0.67575  -0.66965  -0.66604
 Alpha  occ. eigenvalues --   -0.64336  -0.64163  -0.63259  -0.62079  -0.61412
 Alpha  occ. eigenvalues --   -0.60952  -0.59740  -0.58901  -0.58532  -0.58103
 Alpha  occ. eigenvalues --   -0.57758  -0.56527  -0.55532  -0.55148  -0.54441
 Alpha  occ. eigenvalues --   -0.52919  -0.52179  -0.51455  -0.49219  -0.48612
 Alpha  occ. eigenvalues --   -0.47435  -0.46388  -0.46175  -0.43399  -0.41796
 Alpha  occ. eigenvalues --   -0.39843
 Alpha virt. eigenvalues --   -0.20290  -0.11777  -0.09876  -0.09514  -0.08782
 Alpha virt. eigenvalues --   -0.08166  -0.07944  -0.06937  -0.06730  -0.06569
 Alpha virt. eigenvalues --   -0.06029  -0.05900  -0.04865  -0.04807  -0.04151

 Mulliken charges:
               1
     1  C   -0.247139
     2  C   -1.002421
     3  C    0.138739
     4  C   -0.434872
     5  C   -0.031812
     6  C   -0.465513
     7  O    0.114833
     8  O    0.057360
     9  O    0.221968
    10  O   -0.054524
    11  H    0.220316
    12  H    0.199285
    13  H    0.304542
    14  H    0.280477
    15  H    0.227575
    16  H    0.251355
    17  H    0.285753
    18  O    0.017420
    19  C   -0.272585
    20  H    0.185691
    21  H    0.162526
    22  H    0.169530
    23  C   -0.272784
    24  H    0.179121
    25  H    0.165262
    26  H    0.204284
    27  C   -0.293932
    28  H    0.183382
    29  H    0.184038
    30  H    0.206476
    31  C    0.087094
    32  O    0.261777
    33  C   -0.951075
    34  H    0.248976
    35  H    0.236853
    36  H    0.232026
 Sum of Mulliken charges =   1.00000

 Dipole moment (field-independent basis, Debye):
    X=              0.9929    Y=              2.8981    Z=              0.5280  Tot=              3.1086
 Quadrupole moment (field-independent basis, Debye-Ang):
   XX=            -72.3990   YY=            -73.5198   ZZ=            -86.7222
   XY=             -2.3548   XZ=              1.5058   YZ=             -3.9354

  Exact polarizability: 145.793  -1.024 147.408  -2.440  -0.395 128.894
 Approx polarizability: 182.788   2.400 192.747  -8.974  -0.358 183.919

                      1                      2                      3
                      A                      A                      A
 Frequencies --     42.5509                67.9190                71.8147
 Red. masses --      3.9068                 1.0505                 3.4644
 Frc consts  --      0.0042                 0.0029                 0.0105
 IR Inten    --      0.4573                 0.6001                 1.5515

                      4                      5                      6
                      A                      A                      A
 Frequencies --     83.3787                85.1399                91.4480
 Red. masses --      2.9582                 3.0073                 2.4186
 Frc consts  --      0.0121                 0.0128                 0.0119
 IR Inten    --      0.7001                 2.1939                 7.3064

                      7                      8                      9
                      A                      A                      A
 Frequencies --     99.8807               121.1979               155.9974
 Red. masses --      2.6985                 2.2649                 2.1171
 Frc consts  --      0.0159                 0.0196                 0.0304
 IR Inten    --      3.1543                 4.2754                 1.4106

                     10                     11                     12
                      A                      A                      A
 Frequencies --    163.4528               180.2820               203.5647
 Red. masses --      1.3828                 2.6845                 1.5039
 Frc consts  --      0.0218                 0.0514                 0.0367
 IR Inten    --      0.2240                 1.0827                 0.8088

                     13                     14                     15
                      A                      A                      A
 Frequencies --    229.3725               241.0001               265.5100
 Red. masses --      1.5794                 3.2796                 3.5556
 Frc consts  --      0.0490                 0.1122                 0.1477
 IR Inten    --      3.8094                 5.0641                 6.4047

                     16                     17                     18
                      A                      A                      A
 Frequencies --    272.0477               295.4891               308.7371
 Red. masses --      4.4704                 4.0009                 4.2714
 Frc consts  --      0.1949                 0.2058                 0.2399
 IR Inten    --      0.5459                 1.7573                 4.0593

                     19                     20                     21
                      A                      A                      A
 Frequencies --    344.2467               360.8484               392.3104
 Red. masses --      4.7543                 5.2821                 5.4742
 Frc consts  --      0.3320                 0.4052                 0.4964
 IR Inten    --      3.1559                 2.8475                 4.3719

                     22                     23                     24
                      A                      A                      A
 Frequencies --    405.5772               458.5890               476.3198
 Red. masses --      4.9153                 4.4001                 4.2878
 Frc consts  --      0.4764                 0.5452                 0.5732
 IR Inten    --      1.8122                 5.9427                 6.1315

                     25                     26                     27
                      A                      A                      A
 Frequencies --    531.7308               556.2565               612.3430
 Red. masses --      4.2486                 3.1853                 3.5108
 Frc consts  --      0.7077                 0.5807                 0.7756
 IR Inten    --     11.1675                 1.8245                 7.6130

                     28                     29                     30
                      A                      A                      A
 Frequencies --    662.0964               695.8151               722.2200
 Red. masses --      5.5231                 4.1581                 6.1335
 Frc consts  --      1.4265                 1.1861                 1.8849
 IR Inten    --     32.8900                 8.5025               148.5007

                     31                     32                     33
                      A                      A                      A
 Frequencies --    775.3990               814.7135               901.4252
 Red. masses --      4.8077                 6.6498                 3.2540
 Frc consts  --      1.7031                 2.6006                 1.5579
 IR Inten    --      4.5776                25.7449                 9.2338

                     34                     35                     36
                      A                      A                      A
 Frequencies --    907.2249               944.1349               974.6821
 Red. masses --      2.7646                 4.0738                 2.9809
 Frc consts  --      1.3407                 2.1395                 1.6685
 IR Inten    --     14.4383                33.0565                 1.3346

                     37                     38                     39
                      A                      A                      A
 Frequencies --    996.0606              1008.7815              1021.8554
 Red. masses --      4.6081                 2.8018                 3.3458
 Frc consts  --      2.6937                 1.6799                 2.0584
 IR Inten    --     25.5344                40.2154                47.8345

                     40                     41                     42
                      A                      A                      A
 Frequencies --   1043.1675              1049.6904              1051.2835
 Red. masses --      3.6824                 1.9003                 1.6945
 Frc consts  --      2.3610                 1.2336                 1.1034
 IR Inten    --     10.8241                31.1540                15.5857

                     43                     44                     45
                      A                      A                      A
 Frequencies --   1069.9578              1098.3258              1142.3727
 Red. masses --      2.4085                 2.1467                 2.1555
 Frc consts  --      1.6245                 1.5258                 1.6574
 IR Inten    --      4.9466                 4.8084                37.6378

                     46                     47                     48
                      A                      A                      A
 Frequencies --   1151.1205              1159.9115              1169.8973
 Red. masses --      2.0143                 2.6381                 1.8960
 Frc consts  --      1.5726                 2.0912                 1.5289
 IR Inten    --      8.9282               104.4892                87.4171

                     49                     50                     51
                      A                      A                      A
 Frequencies --   1177.9457              1178.8343              1181.0348
 Red. masses --      1.3139                 1.3197                 1.4559
 Frc consts  --      1.0742                 1.0805                 1.1965
 IR Inten    --      6.8977                18.7545                45.0133

                     52                     53                     54
                      A                      A                      A
 Frequencies --   1190.6228              1223.3275              1234.7301
 Red. masses --      2.6315                 2.4843                 2.1612
 Frc consts  --      2.1979                 2.1905                 1.9412
 IR Inten    --     93.0296               103.4233                94.2463

                     55                     56                     57
                      A                      A                      A
 Frequencies --   1235.1224              1241.5007              1245.8239
 Red. masses --      2.0655                 2.2842                 1.2373
 Frc consts  --      1.8565                 2.0743                 1.1314
 IR Inten    --      2.0521                39.9132                36.9961

                     58                     59                     60
                      A                      A                      A
 Frequencies --   1279.9940              1307.1848              1314.3626
 Red. masses --      1.4951                 1.3660                 1.3654
 Frc consts  --      1.4432                 1.3752                 1.3898
 IR Inten    --      6.8612                49.8305                11.1635

                     61                     62                     63
                      A                      A                      A
 Frequencies --   1329.6542              1345.2553              1357.9999
 Red. masses --      1.3977                 1.3410                 1.3035
 Frc consts  --      1.4560                 1.4298                 1.4164
 IR Inten    --      7.8310                15.4055                49.8260

                     64                     65                     66
                      A                      A                      A
 Frequencies --   1379.8015              1388.0192              1398.1802
 Red. masses --      1.3171                 1.4534                 1.3865
 Frc consts  --      1.4774                 1.6498                 1.5970
 IR Inten    --     11.0631                12.8034                 7.6626

                     67                     68                     69
                      A                      A                      A
 Frequencies --   1411.3299              1431.9433              1438.6188
 Red. masses --      1.5092                 1.6203                 1.0678
 Frc consts  --      1.7712                 1.9575                 1.3021
 IR Inten    --     52.4871                10.6760                51.2151

                     70                     71                     72
                      A                      A                      A
 Frequencies --   1441.8138              1451.2370              1474.9734
 Red. masses --      1.8749                 1.2460                 1.1322
 Frc consts  --      2.2963                 1.5461                 1.4512
 IR Inten    --      4.4336                76.2151                 2.3846

                     73                     74                     75
                      A                      A                      A
 Frequencies --   1476.5724              1477.5669              1487.1139
 Red. masses --      1.1384                 1.1635                 1.0430
 Frc consts  --      1.4624                 1.4966                 1.3590
 IR Inten    --      5.9622                 2.2236                13.6618

                     76                     77                     78
                      A                      A                      A
 Frequencies --   1490.2397              1493.5645              1498.2126
 Red. masses --      1.0427                 1.0735                 1.0688
 Frc consts  --      1.3644                 1.4110                 1.4135
 IR Inten    --     15.2269                13.2334                17.5181

                     79                     80                     81
                      A                      A                      A
 Frequencies --   1499.1007              1501.2859              1514.9958
 Red. masses --      1.0700                 1.0483                 3.3816
 Frc consts  --      1.4167                 1.3921                 4.5730
 IR Inten    --     13.8274                 3.8046               281.0480

                     82                     83                     84
                      A                      A                      A
 Frequencies --   1521.3331              1622.2616              2998.9776
 Red. masses --      1.0971                 5.3524                 1.0597
 Frc consts  --      1.4960                 8.2992                 5.6155
 IR Inten    --     14.3977               285.9551                31.4642

                     85                     86                     87
                      A                      A                      A
 Frequencies --   3019.0724              3025.0336              3026.5931
 Red. masses --      1.0361                 1.0359                 1.0365
 Frc consts  --      5.5642                 5.5852                 5.5939
 IR Inten    --     48.6320                28.8387                24.0019

                     88                     89                     90
                      A                      A                      A
 Frequencies --   3032.1948              3050.3998              3053.8341
 Red. masses --      1.0825                 1.1009                 1.0855
 Frc consts  --      5.8637                 6.0357                 5.9644
 IR Inten    --     10.8867                23.6305                 6.3482

                     91                     92                     93
                      A                      A                      A
 Frequencies --   3065.8471              3085.7534              3087.6491
 Red. masses --      1.0429                 1.1025                 1.0896
 Frc consts  --      5.7755                 6.1852                 6.1204
 IR Inten    --     18.1642                29.8121                 3.1580

                     94                     95                     96
                      A                      A                      A
 Frequencies --   3096.0988              3098.2075              3153.5638
 Red. masses --      1.1058                 1.1064                 1.0903
 Frc consts  --      6.2451                 6.2571                 6.3885
 IR Inten    --     26.6180                23.7861                 3.0232

                     97                     98                     99
                      A                      A                      A
 Frequencies --   3168.2637              3168.7257              3172.5026
 Red. masses --      1.0949                 1.0946                 1.1009
 Frc consts  --      6.4753                 6.4756                 6.5284
 IR Inten    --      3.6949                 7.9741                 4.5817

                    100                    101                    102
                      A                      A                      A
 Frequencies --   3177.1508              3191.7808              3204.7790
 Red. masses --      1.1009                 1.0925                 1.1076
 Frc consts  --      6.5477                 6.5577                 6.7024
 IR Inten    --      4.8928                 1.3316                 2.0961

 - Thermochemistry -
 -------------------
 Temperature   298.150 Kelvin.  Pressure   1.00000 Atm.
 Atom     1 has atomic number  6 and mass  12.00000

 Molecular mass:   247.11816 amu.
 Principal axes and moments of inertia in atomic units:
                           1         2         3
     Eigenvalues --  3243.720274478.498555384.39321
           X            0.99986  -0.01303   0.01005
           Y            0.01310   0.99989  -0.00714
           Z           -0.00996   0.00727   0.99992
 This molecule is an asymmetric top.
 Rotational symmetry number  1.
 Warning -- assumption of classical behavior for rotation
           may cause significant error
 Rotational temperatures (Kelvin)      0.02670     0.01934     0.01609
 Rotational constants (GHZ):           0.55638     0.40298     0.33518
 Zero-point vibrational energy     805057.6 (Joules/Mol)
                                  192.41339 (Kcal/Mol)
 Warning -- explicit consideration of  27 degrees of freedom as
           vibrations may cause significant error
 Vibrational temperatures:     61.22    97.72   103.33   119.96   122.50
          (Kelvin)            131.57   143.71   174.38   224.45   235.17
                              259.39   292.88   330.02   346.75   382.01
                              391.42   425.14   444.20   495.29   519.18
                              564.45   583.53   659.81   685.32   765.04
                              800.33   881.02   952.61  1001.12  1039.11
                             1115.62  1172.19  1296.95  1305.29  1358.40
                             1402.35  1433.11  1451.41  1470.22  1500.88
                             1510.27  1512.56  1539.43  1580.24  1643.62
                             1656.20  1668.85  1683.22  1694.80  1696.08
                             1699.24  1713.04  1760.09  1776.50  1777.06
                             1786.24  1792.46  1841.62  1880.74  1891.07
                             1913.07  1935.52  1953.86  1985.22  1997.05
                             2011.67  2030.59  2060.24  2069.85  2074.45
                             2088.00  2122.16  2124.46  2125.89  2139.62
                             2144.12  2148.90  2155.59  2156.87  2160.01
                             2179.74  2188.86  2334.07  4314.85  4343.77
                             4352.34  4354.59  4362.65  4388.84  4393.78
                             4411.06  4439.71  4442.43  4454.59  4457.62
                             4537.27  4558.42  4559.08  4564.52  4571.21
                             4592.25  4610.96

 Zero-point correction=                           0.306630 (Hartree/Particle)
 Thermal correction to Energy=                    0.324514
 Thermal correction to Enthalpy=                  0.325459
 Thermal correction to Gibbs Free Energy=         0.260685
 Sum of electronic and zero-point Energies=           -880.626794
 Sum of electronic and thermal Energies=              -880.608910
 Sum of electronic and thermal Enthalpies=            -880.607966
 Sum of electronic and thermal Free Energies=         -880.672740

                     E (Thermal)             CV                S
                      KCal/Mol        Cal/Mol-Kelvin    Cal/Mol-Kelvin
 Total                  203.636             65.135            136.329
 Electronic               0.000              0.000              0.000
 Translational            0.889              2.981             42.415
 Rotational               0.889              2.981             32.725
 Vibrational            201.858             59.173             61.189
 Vibration     1          0.595              1.980              5.137
 Vibration     2          0.598              1.970              4.213
 Vibration     3          0.598              1.967              4.103
 Vibration     4          0.600              1.961              3.810
 Vibration     5          0.601              1.959              3.769
 Vibration     6          0.602              1.955              3.629
 Vibration     7          0.604              1.949              3.457
 Vibration     8          0.609              1.932              3.081
 Vibration     9          0.620              1.896              2.598
 Vibration    10          0.623              1.887              2.509
 Vibration    11          0.629              1.866              2.325
 Vibration    12          0.639              1.835              2.101
 Vibration    13          0.652              1.796              1.884
 Vibration    14          0.658              1.778              1.795
 Vibration    15          0.671              1.736              1.625
 Vibration    16          0.675              1.725              1.583
 Vibration    17          0.690              1.682              1.442
 Vibration    18          0.698              1.657              1.369
 Vibration    19          0.723              1.587              1.192
 Vibration    20          0.735              1.553              1.118
 Vibration    21          0.760              1.487              0.991
 Vibration    22          0.771              1.458              0.942
 Vibration    23          0.817              1.342              0.770
 Vibration    24          0.833              1.303              0.720
 Vibration    25          0.887              1.180              0.583
 Vibration    26          0.912              1.126              0.531
 Vibration    27          0.972              1.006              0.429

 Optimization completed.
    -- Stationary point found.
 Normal termination of Gaussian 09 at Sun Jan  8 11:46:06 2017.
