 Gaussian 09, Revision D.01,
 Gaussian 09:  EM64L-G09RevD.01 24-Apr-2013

 -------------------------------------------------------------------
 #P PBE1PBE/6-311+G(d,p) opt optcyc=999 freq EmpiricalDispersion=GD3
 -------------------------------------------------------------------

 -------
 disacch
 -------
 Symbolic Z-matrix:
 Charge =  1 Multiplicity = 1

 SCF Done:  E(RPBE1PBE) =  -880.927383046     A.U. after   14 cycles
 SCF Done:  E(RPBE1PBE) =  -880.931589291     A.U. after   17 cycles
 SCF Done:  E(RPBE1PBE) =  -880.932157024     A.U. after   18 cycles
 SCF Done:  E(RPBE1PBE) =  -880.932386991     A.U. after   13 cycles
 SCF Done:  E(RPBE1PBE) =  -880.932468320     A.U. after   14 cycles
 SCF Done:  E(RPBE1PBE) =  -880.932500951     A.U. after   15 cycles
 SCF Done:  E(RPBE1PBE) =  -880.932506906     A.U. after   16 cycles
 SCF Done:  E(RPBE1PBE) =  -880.932508049     A.U. after   13 cycles
 SCF Done:  E(RPBE1PBE) =  -880.932508250     A.U. after   13 cycles
 Optimization completed.
    -- Stationary point found.
 Normal termination of Gaussian 09 at Mon Jan  9 14:28:02 2017.

 ----------------------------------------------------------------------
 #P Geom=AllCheck Guess=TCheck SCRF=Check GenChk RPBE1PBE/6-311+G(d,p)
 Freq
 ----------------------------------------------------------------------

 Structure from the checkpoint file:  "Ac-4_cGalMe.chk"
 -------
 disacch
 -------
 Charge =  1 Multiplicity = 1

                         Standard orientation:
 ---------------------------------------------------------------------
 Center     Atomic      Atomic             Coordinates (Angstroms)
 Number     Number       Type             X           Y           Z
 ---------------------------------------------------------------------
      1          6           0       -2.639988   -0.558697   -0.419480
      2          6           0       -1.144636   -0.785239   -0.325629
      3          6           0       -0.468924    0.053114    0.734132
      4          6           0        1.009629   -0.305921    0.865144
      5          6           0        1.583581   -0.686556   -0.523871
      6          6           0        0.706347   -0.077262   -1.604388
      7          8           0       -0.582883   -0.468605   -1.608848
      8          8           0        1.666507    0.779602    1.450900
      9          8           0       -0.608166    1.480282    0.389124
     10          8           0       -3.154064   -0.868087    0.840729
     11          1           0       -3.045750   -1.209371   -1.206796
     12          1           0       -2.850832    0.484793   -0.702137
     13          1           0       -0.945617   -1.838214   -0.097833
     14          1           0       -0.999938   -0.016010    1.681478
     15          1           0        1.053568   -1.202238    1.500657
     16          1           0        2.595175   -0.270453   -0.626640
     17          1           0        1.113324   -0.166926   -2.608530
     18          8           0        1.551261   -2.060157   -0.762163
     19          6           0       -4.567907   -0.818337    0.894078
     20          1           0       -4.857074   -1.071707    1.913239
     21          1           0       -4.937190    0.186424    0.652028
     22          1           0       -5.013407   -1.542822    0.201329
     23          6           0        2.674710   -2.762399   -0.252516
     24          1           0        3.599701   -2.411706   -0.725294
     25          1           0        2.760258   -2.656474    0.836475
     26          1           0        2.521382   -3.812784   -0.494606
     27          6           0        2.876767    0.440167    2.111821
     28          1           0        2.682803   -0.247844    2.942676
     29          1           0        3.602458   -0.013487    1.425857
     30          1           0        3.291433    1.368106    2.502556
     31          6           0        0.107976    2.045051   -0.506377
     32          8           0        0.789473    1.438856   -1.391811
     33          6           0        0.137681    3.518341   -0.496540
     34          1           0        0.885763    3.817376    0.247048
     35          1           0       -0.827675    3.907623   -0.171415
     36          1           0        0.423180    3.907014   -1.471790
 ---------------------------------------------------------------------

 SCF Done:  E(RPBE1PBE) =  -880.932508250     A.U. after    3 cycles

 The electronic state is 1-A.
 Alpha  occ. eigenvalues --  -19.45341 -19.44896 -19.39717 -19.36517 -19.35952
 Alpha  occ. eigenvalues --  -19.33329 -10.57383 -10.50822 -10.45845 -10.44187
 Alpha  occ. eigenvalues --  -10.43878 -10.43713 -10.40043 -10.39524 -10.39041
 Alpha  occ. eigenvalues --  -10.38913 -10.36594  -1.37242  -1.29260  -1.26722
 Alpha  occ. eigenvalues --   -1.23254  -1.22036  -1.19781  -1.01781  -0.98781
 Alpha  occ. eigenvalues --   -0.95337  -0.90316  -0.87947  -0.86249  -0.83340
 Alpha  occ. eigenvalues --   -0.81625  -0.79205  -0.77508  -0.76186  -0.73288
 Alpha  occ. eigenvalues --   -0.72209  -0.68411  -0.67515  -0.66929  -0.66474
 Alpha  occ. eigenvalues --   -0.64203  -0.64085  -0.63559  -0.61958  -0.61318
 Alpha  occ. eigenvalues --   -0.60834  -0.59636  -0.58972  -0.58369  -0.58024
 Alpha  occ. eigenvalues --   -0.57417  -0.56857  -0.55549  -0.54875  -0.54152
 Alpha  occ. eigenvalues --   -0.53045  -0.52059  -0.51142  -0.49264  -0.48600
 Alpha  occ. eigenvalues --   -0.47550  -0.46402  -0.45955  -0.44602  -0.40888
 Alpha  occ. eigenvalues --   -0.39654
 Alpha virt. eigenvalues --   -0.20132  -0.11539  -0.09982  -0.09428  -0.09376
 Alpha virt. eigenvalues --   -0.08130  -0.07438  -0.07203  -0.06650  -0.06530
 Alpha virt. eigenvalues --   -0.06052  -0.05323  -0.05004  -0.04669  -0.04505

 Mulliken charges:
               1
     1  C   -0.280806
     2  C   -0.744295
     3  C    0.144897
     4  C   -0.632592
     5  C   -0.143937
     6  C   -0.477926
     7  O    0.093347
     8  O    0.043729
     9  O    0.251341
    10  O   -0.059495
    11  H    0.217592
    12  H    0.198589
    13  H    0.299954
    14  H    0.281188
    15  H    0.249180
    16  H    0.248949
    17  H    0.283765
    18  O    0.048157
    19  C   -0.274249
    20  H    0.186443
    21  H    0.161634
    22  H    0.169031
    23  C   -0.256861
    24  H    0.181183
    25  H    0.174538
    26  H    0.208662
    27  C   -0.247009
    28  H    0.185380
    29  H    0.177957
    30  H    0.202328
    31  C    0.142363
    32  O    0.261138
    33  C   -1.005157
    34  H    0.248020
    35  H    0.233315
    36  H    0.229646
 Sum of Mulliken charges =   1.00000

 Dipole moment (field-independent basis, Debye):
    X=              2.0302    Y=              2.4087    Z=              0.2648  Tot=              3.1613
 Quadrupole moment (field-independent basis, Debye-Ang):
   XX=            -64.7009   YY=            -73.8172   ZZ=            -91.7276
   XY=             -3.1837   XZ=              2.4108   YZ=             -4.3122

  Exact polarizability: 150.753  -0.732 146.191  -1.525   0.267 125.013
 Approx polarizability: 183.340   2.578 192.581  -7.557   0.248 181.822

                      1                      2                      3
                      A                      A                      A
 Frequencies --     44.8801                67.8830                81.4694
 Red. masses --      3.9293                 3.5425                 2.5727
 Frc consts  --      0.0047                 0.0096                 0.0101
 IR Inten    --      0.4054                 1.3581                 2.7897

                      4                      5                      6
                      A                      A                      A
 Frequencies --     84.7654                89.3754                94.3335
 Red. masses --      1.1118                 2.8744                 2.5939
 Frc consts  --      0.0047                 0.0135                 0.0136
 IR Inten    --      0.5944                 5.1003                 4.4896

                      7                      8                      9
                      A                      A                      A
 Frequencies --     99.7351               124.0188               159.1443
 Red. masses --      2.5886                 2.5924                 2.5776
 Frc consts  --      0.0152                 0.0235                 0.0385
 IR Inten    --      1.2069                 2.9410                 1.6275

                     10                     11                     12
                      A                      A                      A
 Frequencies --    166.9591               173.9246               203.0863
 Red. masses --      1.4996                 1.3359                 2.9564
 Frc consts  --      0.0246                 0.0238                 0.0718
 IR Inten    --      0.8658                 0.0043                 0.4809

                     13                     14                     15
                      A                      A                      A
 Frequencies --    227.5416               235.6024               264.8795
 Red. masses --      2.0207                 1.8330                 3.9585
 Frc consts  --      0.0616                 0.0599                 0.1636
 IR Inten    --      1.9752                 2.1634                 2.1690

                     16                     17                     18
                      A                      A                      A
 Frequencies --    272.7061               301.9306               321.8930
 Red. masses --      4.0080                 3.5766                 4.3570
 Frc consts  --      0.1756                 0.1921                 0.2660
 IR Inten    --      1.4199                 4.0359                 1.0225

                     19                     20                     21
                      A                      A                      A
 Frequencies --    345.0293               358.7601               366.3721
 Red. masses --      4.5112                 4.8758                 5.0036
 Frc consts  --      0.3164                 0.3697                 0.3957
 IR Inten    --      4.0016                 5.3621                15.6158

                     22                     23                     24
                      A                      A                      A
 Frequencies --    411.8643               431.8611               486.1180
 Red. masses --      4.5860                 4.6011                 4.5946
 Frc consts  --      0.4583                 0.5056                 0.6397
 IR Inten    --      4.3184                 6.6408                 7.1150

                     25                     26                     27
                      A                      A                      A
 Frequencies --    515.4801               566.1890               616.9716
 Red. masses --      4.3630                 3.3407                 3.6696
 Frc consts  --      0.6831                 0.6310                 0.8230
 IR Inten    --      6.0285                 1.3363                 4.7245

                     28                     29                     30
                      A                      A                      A
 Frequencies --    654.4508               696.2028               724.2170
 Red. masses --      4.9696                 4.0789                 6.1462
 Frc consts  --      1.2541                 1.1648                 1.8993
 IR Inten    --     26.8947                 3.5927               149.1865

                     31                     32                     33
                      A                      A                      A
 Frequencies --    774.1138               817.1524               893.7005
 Red. masses --      4.8563                 6.3474                 2.7549
 Frc consts  --      1.7146                 2.4972                 1.2964
 IR Inten    --      7.2573                18.7158                10.2511

                     34                     35                     36
                      A                      A                      A
 Frequencies --    903.3609               945.9776               975.8189
 Red. masses --      3.3372                 4.4241                 3.2068
 Frc consts  --      1.6046                 2.3326                 1.7991
 IR Inten    --      8.1176                36.0456                 2.8956

                     37                     38                     39
                      A                      A                      A
 Frequencies --   1006.6281              1017.4961              1021.7194
 Red. masses --      3.8679                 2.8690                 2.8394
 Frc consts  --      2.3092                 1.7500                 1.7464
 IR Inten    --     29.6059                36.7493                32.7933

                     40                     41                     42
                      A                      A                      A
 Frequencies --   1041.8728              1052.1401              1053.9630
 Red. masses --      3.7781                 1.8133                 1.7614
 Frc consts  --      2.4163                 1.1827                 1.1528
 IR Inten    --     20.9204                20.1992                29.8331

                     43                     44                     45
                      A                      A                      A
 Frequencies --   1073.5886              1095.0150              1139.1094
 Red. masses --      2.4261                 2.0769                 2.5282
 Frc consts  --      1.6475                 1.4672                 1.9329
 IR Inten    --     17.1056                 9.8043                61.3265

                     46                     47                     48
                      A                      A                      A
 Frequencies --   1150.0959              1164.9366              1170.9763
 Red. masses --      1.9596                 2.3144                 1.7606
 Frc consts  --      1.5272                 1.8505                 1.4223
 IR Inten    --     29.6212               136.5315                27.1599

                     49                     50                     51
                      A                      A                      A
 Frequencies --   1177.7798              1179.0717              1183.8317
 Red. masses --      1.3459                 1.3397                 1.5907
 Frc consts  --      1.1000                 1.0974                 1.3134
 IR Inten    --     29.2559                14.7611                21.4638

                     52                     53                     54
                      A                      A                      A
 Frequencies --   1193.4712              1222.8131              1225.6069
 Red. masses --      2.7368                 2.3574                 2.0802
 Frc consts  --      2.2968                 2.0768                 1.8410
 IR Inten    --    130.3148                60.8404                69.7897

                     55                     56                     57
                      A                      A                      A
 Frequencies --   1235.4439              1240.7128              1250.4508
 Red. masses --      2.1981                 2.2209                 1.2471
 Frc consts  --      1.9767                 2.0143                 1.1489
 IR Inten    --     64.1634                45.5834                14.7339

                     58                     59                     60
                      A                      A                      A
 Frequencies --   1282.7970              1307.3205              1313.4372
 Red. masses --      1.4881                 1.3161                 1.6612
 Frc consts  --      1.4428                 1.3253                 1.6884
 IR Inten    --     11.1742                49.4916                 5.4994

                     61                     62                     63
                      A                      A                      A
 Frequencies --   1323.0272              1346.1452              1355.2136
 Red. masses --      1.1974                 1.3608                 1.2881
 Frc consts  --      1.2349                 1.4529                 1.3939
 IR Inten    --      1.8003                16.2980                48.9744

                     64                     65                     66
                      A                      A                      A
 Frequencies --   1380.6610              1393.1387              1398.4367
 Red. masses --      1.2700                 1.4046                 1.4971
 Frc consts  --      1.4264                 1.6062                 1.7250
 IR Inten    --      3.4613                14.3593                10.1973

                     67                     68                     69
                      A                      A                      A
 Frequencies --   1410.5215              1432.2573              1439.2201
 Red. masses --      1.5168                 1.6080                 1.1030
 Frc consts  --      1.7780                 1.9435                 1.3461
 IR Inten    --     44.3446                18.2754                53.5777

                     70                     71                     72
                      A                      A                      A
 Frequencies --   1445.8879              1451.7083              1472.3075
 Red. masses --      1.8953                 1.1909                 1.1278
 Frc consts  --      2.3345                 1.4787                 1.4404
 IR Inten    --      5.9584                60.7998                 3.9438

                     73                     74                     75
                      A                      A                      A
 Frequencies --   1478.2192              1478.9247              1488.1026
 Red. masses --      1.1492                 1.1638                 1.0409
 Frc consts  --      1.4796                 1.4998                 1.3581
 IR Inten    --      1.9035                 2.2038                13.7073

                     76                     77                     78
                      A                      A                      A
 Frequencies --   1488.6341              1491.2234              1498.6501
 Red. masses --      1.0455                 1.0465                 1.0703
 Frc consts  --      1.3651                 1.3711                 1.4164
 IR Inten    --     25.2154                 1.7116                17.5224

                     79                     80                     81
                      A                      A                      A
 Frequencies --   1499.5808              1500.5547              1517.2421
 Red. masses --      1.0653                 1.0626                 3.7094
 Frc consts  --      1.4115                 1.4096                 5.0310
 IR Inten    --     17.3787                11.0975               294.7666

                     82                     83                     84
                      A                      A                      A
 Frequencies --   1522.6593              1624.3738              2999.7502
 Red. masses --      1.1026                 5.3491                 1.0592
 Frc consts  --      1.5062                 8.3158                 5.6158
 IR Inten    --     17.1388               289.0237                31.8337

                     85                     86                     87
                      A                      A                      A
 Frequencies --   3019.1591              3019.9745              3025.2139
 Red. masses --      1.0360                 1.0362                 1.0379
 Frc consts  --      5.5642                 5.5679                 5.5967
 IR Inten    --     54.0054                18.4835                33.2924

                     88                     89                     90
                      A                      A                      A
 Frequencies --   3033.3658              3042.2329              3049.6860
 Red. masses --      1.0820                 1.0842                 1.1017
 Frc consts  --      5.8660                 5.9121                 6.0371
 IR Inten    --     10.6168                13.7225                23.6928

                     91                     92                     93
                      A                      A                      A
 Frequencies --   3067.0210              3085.8281              3090.2428
 Red. masses --      1.0421                 1.1058                 1.1056
 Frc consts  --      5.7753                 6.2040                 6.2208
 IR Inten    --     18.5648                29.4471                23.6321

                     94                     95                     96
                      A                      A                      A
 Frequencies --   3091.8771              3096.4666              3151.6262
 Red. masses --      1.0865                 1.1062                 1.0919
 Frc consts  --      6.1195                 6.2489                 6.3898
 IR Inten    --      5.3958                24.7751                 3.5361

                     97                     98                     99
                      A                      A                      A
 Frequencies --   3168.6703              3174.6915              3175.9148
 Red. masses --      1.1003                 1.1008                 1.0894
 Frc consts  --      6.5091                 6.5366                 6.4741
 IR Inten    --      8.9118                 6.7917                 2.8245

                    100                    101                    102
                      A                      A                      A
 Frequencies --   3176.4715              3188.3620              3206.5217
 Red. masses --      1.1002                 1.0924                 1.1069
 Frc consts  --      6.5405                 6.5430                 6.7055
 IR Inten    --      3.8238                 1.5639                 2.2700

 - Thermochemistry -
 -------------------
 Temperature   298.150 Kelvin.  Pressure   1.00000 Atm.
 Atom     1 has atomic number  6 and mass  12.00000

 Molecular mass:   247.11816 amu.
 Principal axes and moments of inertia in atomic units:
                           1         2         3
     Eigenvalues --  3058.131764653.649095632.70961
           X            0.99986  -0.01338   0.00987
           Y            0.01351   0.99982  -0.01329
           Z           -0.00969   0.01342   0.99986
 This molecule is an asymmetric top.
 Rotational symmetry number  1.
 Warning -- assumption of classical behavior for rotation
           may cause significant error
 Rotational temperatures (Kelvin)      0.02832     0.01861     0.01538
 Rotational constants (GHZ):           0.59015     0.38781     0.32040
 Zero-point vibrational energy     805073.7 (Joules/Mol)
                                  192.41723 (Kcal/Mol)
 Warning -- explicit consideration of  27 degrees of freedom as
           vibrations may cause significant error
 Vibrational temperatures:     64.57    97.67   117.22   121.96   128.59
          (Kelvin)            135.72   143.50   178.44   228.97   240.22
                              250.24   292.20   327.38   338.98   381.10
                              392.36   434.41   463.13   496.42   516.18
                              527.13   592.58   621.35   699.41   741.66
                              814.62   887.68   941.61  1001.68  1041.99
                             1113.78  1175.70  1285.83  1299.73  1361.05
                             1403.98  1448.31  1463.95  1470.02  1499.02
                             1513.79  1516.42  1544.65  1575.48  1638.92
                             1654.73  1676.08  1684.77  1694.56  1696.42
                             1703.27  1717.14  1759.35  1763.37  1777.53
                             1785.11  1799.12  1845.66  1880.94  1889.74
                             1903.54  1936.80  1949.85  1986.46  2004.41
                             2012.04  2029.42  2060.70  2070.71  2080.31
                             2088.68  2118.32  2126.83  2127.84  2141.04
                             2141.81  2145.54  2156.22  2157.56  2158.96
                             2182.97  2190.76  2337.11  4315.97  4343.89
                             4345.06  4352.60  4364.33  4377.09  4387.81
                             4412.75  4439.81  4446.16  4448.52  4455.12
                             4534.48  4559.00  4567.67  4569.43  4570.23
                             4587.34  4613.46

 Zero-point correction=                           0.306636 (Hartree/Particle)
 Thermal correction to Energy=                    0.324502
 Thermal correction to Enthalpy=                  0.325446
 Thermal correction to Gibbs Free Energy=         0.260890
 Sum of electronic and zero-point Energies=           -880.625872
 Sum of electronic and thermal Energies=              -880.608006
 Sum of electronic and thermal Enthalpies=            -880.607062
 Sum of electronic and thermal Free Energies=         -880.671618

                     E (Thermal)             CV                S
                      KCal/Mol        Cal/Mol-Kelvin    Cal/Mol-Kelvin
 Total                  203.628             65.174            135.870
 Electronic               0.000              0.000              0.000
 Translational            0.889              2.981             42.415
 Rotational               0.889              2.981             32.750
 Vibrational            201.851             59.213             60.706
 Vibration     1          0.595              1.979              5.031
 Vibration     2          0.598              1.970              4.214
 Vibration     3          0.600              1.962              3.855
 Vibration     4          0.601              1.960              3.777
 Vibration     5          0.602              1.957              3.674
 Vibration     6          0.603              1.953              3.568
 Vibration     7          0.604              1.949              3.459
 Vibration     8          0.610              1.929              3.037
 Vibration     9          0.621              1.892              2.560
 Vibration    10          0.624              1.883              2.469
 Vibration    11          0.627              1.875              2.393
 Vibration    12          0.639              1.836              2.105
 Vibration    13          0.651              1.799              1.898
 Vibration    14          0.655              1.786              1.836
 Vibration    15          0.671              1.737              1.629
 Vibration    16          0.676              1.724              1.579
 Vibration    17          0.694              1.670              1.406
 Vibration    18          0.707              1.632              1.300
 Vibration    19          0.723              1.585              1.189
 Vibration    20          0.734              1.557              1.127
 Vibration    21          0.739              1.541              1.095
 Vibration    22          0.776              1.444              0.920
 Vibration    23          0.793              1.401              0.853
 Vibration    24          0.842              1.281              0.694
 Vibration    25          0.871              1.216              0.621
 Vibration    26          0.922              1.104              0.512
 Vibration    27          0.977              0.996              0.421

 Normal termination of Gaussian 09 at Mon Jan  9 14:49:04 2017.
