 Gaussian 09, Revision D.01,
 Gaussian 09:  EM64L-G09RevD.01 24-Apr-2013

 -------------------------------------------------------------------
 #P PBE1PBE/6-311+G(d,p) opt optcyc=999 freq EmpiricalDispersion=GD3
 -------------------------------------------------------------------

 -------
 disacch
 -------
 Symbolic Z-matrix:
 Charge =  1 Multiplicity = 1

 SCF Done:  E(RPBE1PBE) =  -880.913916757     A.U. after   15 cycles
 SCF Done:  E(RPBE1PBE) =  -880.918411618     A.U. after   12 cycles
 SCF Done:  E(RPBE1PBE) =  -880.919165850     A.U. after   13 cycles
 SCF Done:  E(RPBE1PBE) =  -880.919483102     A.U. after   13 cycles
 SCF Done:  E(RPBE1PBE) =  -880.919371510     A.U. after   12 cycles
 SCF Done:  E(RPBE1PBE) =  -880.919768894     A.U. after   14 cycles
 SCF Done:  E(RPBE1PBE) =  -880.919833087     A.U. after   12 cycles
 SCF Done:  E(RPBE1PBE) =  -880.919880164     A.U. after   12 cycles
 SCF Done:  E(RPBE1PBE) =  -880.919892364     A.U. after   10 cycles
 SCF Done:  E(RPBE1PBE) =  -880.919900818     A.U. after   16 cycles
 SCF Done:  E(RPBE1PBE) =  -880.920001086     A.U. after   16 cycles
 SCF Done:  E(RPBE1PBE) =  -880.920413418     A.U. after   13 cycles
 SCF Done:  E(RPBE1PBE) =  -880.920426671     A.U. after   14 cycles
 SCF Done:  E(RPBE1PBE) =  -880.920474486     A.U. after   15 cycles
 SCF Done:  E(RPBE1PBE) =  -880.920515875     A.U. after   11 cycles
 SCF Done:  E(RPBE1PBE) =  -880.920519536     A.U. after   16 cycles
 SCF Done:  E(RPBE1PBE) =  -880.920520749     A.U. after   15 cycles
 SCF Done:  E(RPBE1PBE) =  -880.920521126     A.U. after   10 cycles
 SCF Done:  E(RPBE1PBE) =  -880.920521379     A.U. after    9 cycles
 Optimization completed.
    -- Stationary point found.
 Normal termination of Gaussian 09 at Tue Jan 10 08:56:13 2017.

 ----------------------------------------------------------------------
 #P Geom=AllCheck Guess=TCheck SCRF=Check GenChk RPBE1PBE/6-311+G(d,p)
 Freq
 ----------------------------------------------------------------------

 Structure from the checkpoint file:  "Ac-4_cGalMe.chk"
 -------
 disacch
 -------
 Charge =  1 Multiplicity = 1

                         Standard orientation:
 ---------------------------------------------------------------------
 Center     Atomic      Atomic             Coordinates (Angstroms)
 Number     Number       Type             X           Y           Z
 ---------------------------------------------------------------------
      1          6           0       -0.790589   -2.087308    0.012669
      2          6           0       -0.314267   -1.266776   -1.185044
      3          6           0        0.704710   -0.188200   -0.841062
      4          6           0        0.209800    0.723577    0.292130
      5          6           0       -1.276611    1.074626    0.064930
      6          6           0       -2.057350   -0.101773   -0.505671
      7          8           0       -1.531302   -0.656730   -1.622055
      8          8           0        0.384833    0.064709    1.521794
      9          8           0        1.882274   -0.902078   -0.515963
     10          8           0       -1.899873   -1.245925    0.529737
     11          1           0       -0.063238   -2.172862    0.816350
     12          1           0       -1.221219   -3.042436   -0.287100
     13          1           0        0.054353   -1.903709   -1.987952
     14          1           0        0.858718    0.429290   -1.731663
     15          1           0        0.792771    1.648313    0.263804
     16          1           0       -1.721653    1.349531    1.033170
     17          1           0       -3.122492    0.094084   -0.628638
     18          8           0       -1.458924    2.067737   -0.898330
     19          6           0       -3.116971   -1.952902    0.909427
     20          1           0       -3.771021   -1.215754    1.371120
     21          1           0       -3.568152   -2.400925    0.021975
     22          1           0       -2.825523   -2.705883    1.639144
     23          6           0       -1.332190    3.394153   -0.405639
     24          1           0       -2.085235    3.597822    0.365334
     25          1           0       -0.331673    3.581555    0.000616
     26          1           0       -1.497275    4.054847   -1.255160
     27          6           0        0.712564    0.936516    2.591904
     28          1           0        1.650829    1.464887    2.387888
     29          1           0       -0.081741    1.671692    2.775324
     30          1           0        0.830780    0.317477    3.480805
     31          6           0        3.015471   -0.158917   -0.358739
     32          8           0        3.010531    1.033277   -0.485698
     33          6           0        4.181258   -1.025329   -0.022655
     34          1           0        4.320736   -1.782061   -0.798186
     35          1           0        3.991287   -1.548846    0.917755
     36          1           0        5.074501   -0.410941    0.066034
 ---------------------------------------------------------------------

 SCF Done:  E(RPBE1PBE) =  -880.920521379     A.U. after    3 cycles

 The electronic state is 1-A.
 Alpha  occ. eigenvalues --  -19.49635 -19.40862 -19.37652 -19.35327 -19.34791
 Alpha  occ. eigenvalues --  -19.30924 -10.51904 -10.47039 -10.46344 -10.46210
 Alpha  occ. eigenvalues --  -10.45453 -10.43512 -10.42940 -10.41875 -10.38342
 Alpha  occ. eigenvalues --  -10.38295 -10.33208  -1.35760  -1.27353  -1.26727
 Alpha  occ. eigenvalues --   -1.22148  -1.20859  -1.17578  -1.00597  -0.97922
 Alpha  occ. eigenvalues --   -0.94894  -0.89754  -0.87383  -0.86195  -0.83534
 Alpha  occ. eigenvalues --   -0.81812  -0.81088  -0.76598  -0.74790  -0.72727
 Alpha  occ. eigenvalues --   -0.70669  -0.68477  -0.66953  -0.66792  -0.65626
 Alpha  occ. eigenvalues --   -0.65062  -0.63664  -0.62421  -0.62147  -0.61451
 Alpha  occ. eigenvalues --   -0.60317  -0.60116  -0.59463  -0.58626  -0.57807
 Alpha  occ. eigenvalues --   -0.56159  -0.55429  -0.55195  -0.53425  -0.52585
 Alpha  occ. eigenvalues --   -0.52284  -0.51884  -0.50846  -0.49630  -0.48376
 Alpha  occ. eigenvalues --   -0.47407  -0.46459  -0.44196  -0.43446  -0.41047
 Alpha  occ. eigenvalues --   -0.39620
 Alpha virt. eigenvalues --   -0.14133  -0.12125  -0.10916  -0.10382  -0.10094
 Alpha virt. eigenvalues --   -0.09476  -0.09012  -0.07579  -0.07339  -0.06893
 Alpha virt. eigenvalues --   -0.06629  -0.05591  -0.05111  -0.04597  -0.04233

 Mulliken charges:
               1
     1  C   -0.272514
     2  C   -0.656826
     3  C   -0.669838
     4  C   -0.015231
     5  C   -0.667711
     6  C   -0.483006
     7  O    0.113353
     8  O    0.063007
     9  O    0.200166
    10  O    0.200642
    11  H    0.305862
    12  H    0.257715
    13  H    0.274863
    14  H    0.285656
    15  H    0.252188
    16  H    0.215970
    17  H    0.280899
    18  O    0.038490
    19  C   -0.253779
    20  H    0.229070
    21  H    0.238075
    22  H    0.226739
    23  C   -0.268011
    24  H    0.173731
    25  H    0.180478
    26  H    0.202499
    27  C   -0.213291
    28  H    0.193463
    29  H    0.167012
    30  H    0.191058
    31  C    0.370811
    32  O   -0.187422
    33  C   -0.608105
    34  H    0.208168
    35  H    0.205673
    36  H    0.220145
 Sum of Mulliken charges =   1.00000

 Dipole moment (field-independent basis, Debye):
    X=             -5.8110    Y=             -4.4572    Z=              2.9704  Tot=              7.9031
 Quadrupole moment (field-independent basis, Debye-Ang):
   XX=            -64.4780   YY=            -73.1361   ZZ=            -91.8663
   XY=              1.9581   XZ=             -5.1313   YZ=              2.3909

  Exact polarizability: 150.923  -1.233 143.238   0.133  -1.941 121.868
 Approx polarizability: 183.881  -1.159 196.115   0.462  -5.180 175.551

                      1                      2                      3
                      A                      A                      A
 Frequencies --     37.2165                45.3914                64.1797
 Red. masses --      4.8407                 1.2628                 3.4486
 Frc consts  --      0.0040                 0.0015                 0.0084
 IR Inten    --      0.6272                 2.2760                 1.7570

                      4                      5                      6
                      A                      A                      A
 Frequencies --     66.2563                82.8610                85.5200
 Red. masses --      2.8603                 2.5963                 2.2267
 Frc consts  --      0.0074                 0.0105                 0.0096
 IR Inten    --      1.6786                 2.3822                 0.7134

                      7                      8                      9
                      A                      A                      A
 Frequencies --    100.1566               104.8877               143.7196
 Red. masses --      3.9705                 2.7981                 1.9447
 Frc consts  --      0.0235                 0.0181                 0.0237
 IR Inten    --      0.3781                 4.6931                 1.1579

                     10                     11                     12
                      A                      A                      A
 Frequencies --    171.2592               184.1363               211.7723
 Red. masses --      2.0779                 1.2779                 2.0696
 Frc consts  --      0.0359                 0.0255                 0.0547
 IR Inten    --      1.8812                 0.5051                 4.4944

                     13                     14                     15
                      A                      A                      A
 Frequencies --    216.3562               230.6494               265.7105
 Red. masses --      2.2580                 2.1127                 3.7484
 Frc consts  --      0.0623                 0.0662                 0.1559
 IR Inten    --     13.3588                 0.8077                 2.4273

                     16                     17                     18
                      A                      A                      A
 Frequencies --    285.4037               291.9484               314.6500
 Red. masses --      3.3408                 3.8715                 3.7558
 Frc consts  --      0.1603                 0.1944                 0.2191
 IR Inten    --      6.7288                 7.8932                 1.5976

                     19                     20                     21
                      A                      A                      A
 Frequencies --    338.9825               371.3162               397.1848
 Red. masses --      3.2605                 5.2554                 3.5297
 Frc consts  --      0.2207                 0.4269                 0.3281
 IR Inten    --      0.7777                 8.7769                 1.2384

                     22                     23                     24
                      A                      A                      A
 Frequencies --    435.6241               491.7942               507.7635
 Red. masses --      3.4730                 4.8655                 4.8229
 Frc consts  --      0.3883                 0.6933                 0.7326
 IR Inten    --      2.7232                21.0098                10.7966

                     25                     26                     27
                      A                      A                      A
 Frequencies --    527.3969               580.5502               601.2836
 Red. masses --      4.0588                 5.6255                 2.7429
 Frc consts  --      0.6652                 1.1171                 0.5843
 IR Inten    --      4.0035                32.3256                14.4233

                     28                     29                     30
                      A                      A                      A
 Frequencies --    639.5383               685.6069               739.7934
 Red. masses --      5.3612                 5.3302                 5.3903
 Frc consts  --      1.2919                 1.4762                 1.7381
 IR Inten    --     42.5280                14.7041                94.1684

                     31                     32                     33
                      A                      A                      A
 Frequencies --    746.2782               817.3962               858.5247
 Red. masses --      4.7679                 3.8596                 3.8346
 Frc consts  --      1.5645                 1.5194                 1.6653
 IR Inten    --      1.6681                 7.0292                25.6034

                     34                     35                     36
                      A                      A                      A
 Frequencies --    896.1120               921.8668               931.9147
 Red. masses --      3.4148                 3.6153                 3.3805
 Frc consts  --      1.6156                 1.8102                 1.7297
 IR Inten    --      9.7210                26.5107                28.4010

                     37                     38                     39
                      A                      A                      A
 Frequencies --    969.0233              1005.4845              1009.2381
 Red. masses --      2.5495                 2.0100                 3.9268
 Frc consts  --      1.4105                 1.1973                 2.3566
 IR Inten    --     17.3854                11.6638                37.1064

                     40                     41                     42
                      A                      A                      A
 Frequencies --   1023.8023              1045.9208              1062.6910
 Red. masses --      2.4784                 4.3101                 1.8699
 Frc consts  --      1.5305                 2.7780                 1.2442
 IR Inten    --     60.4146                22.7872                 8.9336

                     43                     44                     45
                      A                      A                      A
 Frequencies --   1067.4128              1068.1829              1094.8060
 Red. masses --      2.5839                 4.2080                 1.8143
 Frc consts  --      1.7346                 2.8289                 1.2813
 IR Inten    --     18.7600                62.0842                45.7456

                     46                     47                     48
                      A                      A                      A
 Frequencies --   1133.3608              1142.5003              1165.1593
 Red. masses --      4.5493                 2.7299                 2.4517
 Frc consts  --      3.4429                 2.0994                 1.9611
 IR Inten    --     92.9826                96.8301               109.9602

                     49                     50                     51
                      A                      A                      A
 Frequencies --   1169.0947              1175.4692              1178.6113
 Red. masses --      1.3244                 1.2955                 1.3021
 Frc consts  --      1.0665                 1.0546                 1.0657
 IR Inten    --     18.2491                 7.8524                 2.5782

                     52                     53                     54
                      A                      A                      A
 Frequencies --   1190.3328              1192.5813              1217.5543
 Red. masses --      1.7050                 1.3774                 1.8083
 Frc consts  --      1.4234                 1.1542                 1.5794
 IR Inten    --     21.6900                11.9529                 7.2986

                     55                     56                     57
                      A                      A                      A
 Frequencies --   1220.9191              1236.0677              1237.4527
 Red. masses --      2.0424                 1.8643                 1.7624
 Frc consts  --      1.7938                 1.6782                 1.5901
 IR Inten    --     62.4242               248.6286                71.7659

                     58                     59                     60
                      A                      A                      A
 Frequencies --   1254.0983              1272.4848              1277.3941
 Red. masses --      2.4962                 1.5329                 1.5842
 Frc consts  --      2.3131                 1.4624                 1.5231
 IR Inten    --    228.8142                21.2439                16.0867

                     61                     62                     63
                      A                      A                      A
 Frequencies --   1306.8383              1337.6004              1349.0164
 Red. masses --      1.2898                 1.2201                 1.3534
 Frc consts  --      1.2978                 1.2862                 1.4511
 IR Inten    --     14.1947                 9.4355                 2.1528

                     64                     65                     66
                      A                      A                      A
 Frequencies --   1368.2283              1383.5826              1393.4871
 Red. masses --      1.5828                 1.5310                 1.4892
 Frc consts  --      1.7457                 1.7267                 1.7037
 IR Inten    --      0.5931                 2.7387                19.7012

                     67                     68                     69
                      A                      A                      A
 Frequencies --   1397.4876              1404.9324              1416.7209
 Red. masses --      1.3356                 1.5602                 1.7655
 Frc consts  --      1.5368                 1.8145                 2.0878
 IR Inten    --     32.9374                79.3958                 0.6993

                     70                     71                     72
                      A                      A                      A
 Frequencies --   1437.5134              1461.1306              1462.9023
 Red. masses --      1.6025                 1.0514                 1.1231
 Frc consts  --      1.9510                 1.3225                 1.4161
 IR Inten    --      3.1400                10.6688                 8.4869

                     73                     74                     75
                      A                      A                      A
 Frequencies --   1467.4980              1473.0012              1477.7316
 Red. masses --      1.0445                 1.1230                 1.1270
 Frc consts  --      1.3252                 1.4356                 1.4500
 IR Inten    --     13.3071                 5.0931                 9.6830

                     76                     77                     78
                      A                      A                      A
 Frequencies --   1480.9961              1484.4875              1488.5582
 Red. masses --      1.1020                 1.0519                 1.0626
 Frc consts  --      1.4241                 1.3658                 1.3873
 IR Inten    --     14.5834                13.0186                21.4470

                     79                     80                     81
                      A                      A                      A
 Frequencies --   1490.1856              1491.9178              1498.0290
 Red. masses --      1.0450                 1.0508                 1.0631
 Frc consts  --      1.3672                 1.3780                 1.4056
 IR Inten    --     20.6777                 2.7435                 9.5788

                     82                     83                     84
                      A                      A                      A
 Frequencies --   1505.0699              1855.4518              3018.4080
 Red. masses --      1.0641                11.6134                 1.0403
 Frc consts  --      1.4202                23.5564                 5.5843
 IR Inten    --     16.1036               222.9251                26.4256

                     85                     86                     87
                      A                      A                      A
 Frequencies --   3021.1497              3026.1175              3075.9246
 Red. masses --      1.0708                 1.0440                 1.0374
 Frc consts  --      5.7584                 5.6325                 5.7827
 IR Inten    --     12.5905                42.1880                 0.8646

                     88                     89                     90
                      A                      A                      A
 Frequencies --   3079.5820              3090.0372              3094.5694
 Red. masses --      1.0295                 1.1015                 1.0950
 Frc consts  --      5.7524                 6.1967                 6.1784
 IR Inten    --      2.8529                14.2913                16.7674

                     91                     92                     93
                      A                      A                      A
 Frequencies --   3097.0363              3102.8130              3122.0535
 Red. masses --      1.0962                 1.0886                 1.0595
 Frc consts  --      6.1950                 6.1746                 6.0845
 IR Inten    --     21.4258                 3.0488                 4.4897

                     94                     95                     96
                      A                      A                      A
 Frequencies --   3149.2221              3159.4846              3164.8864
 Red. masses --      1.0998                 1.0889                 1.0943
 Frc consts  --      6.4267                 6.4042                 6.4579
 IR Inten    --      0.4781                 0.9352                 2.2523

                     97                     98                     99
                      A                      A                      A
 Frequencies --   3165.2229              3176.4682              3193.8847
 Red. masses --      1.1011                 1.1005                 1.1094
 Frc consts  --      6.4995                 6.5420                 6.6677
 IR Inten    --      8.7490                 4.7210                 0.2250

                    100                    101                    102
                      A                      A                      A
 Frequencies --   3198.9923              3211.5049              3216.8535
 Red. masses --      1.1039                 1.1104                 1.1135
 Frc consts  --      6.6562                 6.7477                 6.7889
 IR Inten    --      0.7166                 0.7181                 2.0439

 - Thermochemistry -
 -------------------
 Temperature   298.150 Kelvin.  Pressure   1.00000 Atm.
 Atom     1 has atomic number  6 and mass  12.00000

 Molecular mass:   247.11816 amu.
 Principal axes and moments of inertia in atomic units:
                           1         2         3
     Eigenvalues --  2825.299674550.496075443.03261
           X            0.99995  -0.00934  -0.00359
           Y            0.00938   0.99987   0.01287
           Z            0.00347  -0.01291   0.99991
 This molecule is an asymmetric top.
 Rotational symmetry number  1.
 Warning -- assumption of classical behavior for rotation
           may cause significant error
 Rotational temperatures (Kelvin)      0.03066     0.01903     0.01591
 Rotational constants (GHZ):           0.63878     0.39660     0.33157
 Zero-point vibrational energy     805070.2 (Joules/Mol)
                                  192.41639 (Kcal/Mol)
 Warning -- explicit consideration of  27 degrees of freedom as
           vibrations may cause significant error
 Vibrational temperatures:     53.55    65.31    92.34    95.33   119.22
          (Kelvin)            123.04   144.10   150.91   206.78   246.40
                              264.93   304.69   311.29   331.85   382.30
                              410.63   420.05   452.71   487.72   534.24
                              571.46   626.77   707.58   730.56   758.81
                              835.28   865.11   920.15   986.43  1064.40
                             1073.73  1176.05  1235.22  1289.30  1326.36
                             1340.82  1394.21  1446.67  1452.07  1473.02
                             1504.84  1528.97  1535.77  1536.88  1575.18
                             1630.65  1643.80  1676.40  1682.06  1691.24
                             1695.76  1712.62  1715.86  1751.79  1756.63
                             1778.42  1780.42  1804.37  1830.82  1837.88
                             1880.25  1924.51  1940.93  1968.57  1990.66
                             2004.91  2010.67  2021.38  2038.34  2068.26
                             2102.24  2104.79  2111.40  2119.32  2126.12
                             2130.82  2135.84  2141.70  2144.04  2146.53
                             2155.33  2165.46  2669.58  4342.81  4346.76
                             4353.90  4425.56  4430.83  4445.87  4452.39
                             4455.94  4464.25  4491.93  4531.02  4545.79
                             4553.56  4554.04  4570.22  4595.28  4602.63
                             4620.63  4628.33

 Zero-point correction=                           0.306635 (Hartree/Particle)
 Thermal correction to Energy=                    0.324657
 Thermal correction to Enthalpy=                  0.325601
 Thermal correction to Gibbs Free Energy=         0.259877
 Sum of electronic and zero-point Energies=           -880.613886
 Sum of electronic and thermal Energies=              -880.595865
 Sum of electronic and thermal Enthalpies=            -880.594920
 Sum of electronic and thermal Free Energies=         -880.660644

                     E (Thermal)             CV                S
                      KCal/Mol        Cal/Mol-Kelvin    Cal/Mol-Kelvin
 Total                  203.725             65.473            138.327
 Electronic               0.000              0.000              0.000
 Translational            0.889              2.981             42.415
 Rotational               0.889              2.981             32.615
 Vibrational            201.948             59.511             63.298
 Vibration     1          0.594              1.982              5.402
 Vibration     2          0.595              1.979              5.009
 Vibration     3          0.597              1.971              4.324
 Vibration     4          0.598              1.970              4.262
 Vibration     5          0.600              1.961              3.822
 Vibration     6          0.601              1.959              3.760
 Vibration     7          0.604              1.949              3.451
 Vibration     8          0.605              1.945              3.361
 Vibration     9          0.616              1.909              2.754
 Vibration    10          0.626              1.878              2.422
 Vibration    11          0.631              1.861              2.286
 Vibration    12          0.643              1.823              2.028
 Vibration    13          0.645              1.816              1.989
 Vibration    14          0.652              1.794              1.874
 Vibration    15          0.672              1.736              1.624
 Vibration    16          0.683              1.701              1.501
 Vibration    17          0.687              1.689              1.463
 Vibration    18          0.702              1.646              1.338
 Vibration    19          0.719              1.598              1.217
 Vibration    20          0.743              1.531              1.074
 Vibration    21          0.764              1.476              0.973
 Vibration    22          0.796              1.393              0.840
 Vibration    23          0.848              1.268              0.679
 Vibration    24          0.863              1.233              0.639
 Vibration    25          0.882              1.189              0.593
 Vibration    26          0.937              1.073              0.484
 Vibration    27          0.960              1.029              0.447

 Optimization completed.
    -- Stationary point found.
 Normal termination of Gaussian 09 at Tue Jan 10 09:24:43 2017.
