 Gaussian 09, Revision D.01,
 Gaussian 09:  EM64L-G09RevD.01 24-Apr-2013

 -------------------------------------------------------------------
 #P PBE1PBE/6-311+G(d,p) opt optcyc=999 freq EmpiricalDispersion=GD3
 -------------------------------------------------------------------

 -------
 disacch
 -------
 Symbolic Z-matrix:
 Charge =  1 Multiplicity = 1

 SCF Done:  E(RPBE1PBE) =  -880.922568724     A.U. after   16 cycles
 SCF Done:  E(RPBE1PBE) =  -880.926762609     A.U. after   15 cycles
 SCF Done:  E(RPBE1PBE) =  -880.927337700     A.U. after   17 cycles
 SCF Done:  E(RPBE1PBE) =  -880.927673296     A.U. after   14 cycles
 SCF Done:  E(RPBE1PBE) =  -880.927833872     A.U. after   11 cycles
 SCF Done:  E(RPBE1PBE) =  -880.927919615     A.U. after   13 cycles
 SCF Done:  E(RPBE1PBE) =  -880.927928614     A.U. after   11 cycles
 SCF Done:  E(RPBE1PBE) =  -880.927931609     A.U. after   15 cycles
 SCF Done:  E(RPBE1PBE) =  -880.927933348     A.U. after   15 cycles
 SCF Done:  E(RPBE1PBE) =  -880.927934472     A.U. after   14 cycles
 SCF Done:  E(RPBE1PBE) =  -880.927936055     A.U. after    9 cycles
 SCF Done:  E(RPBE1PBE) =  -880.927938202     A.U. after   12 cycles
 SCF Done:  E(RPBE1PBE) =  -880.927940320     A.U. after   15 cycles
 SCF Done:  E(RPBE1PBE) =  -880.927940458     A.U. after   15 cycles
 SCF Done:  E(RPBE1PBE) =  -880.927940372     A.U. after   12 cycles
 Optimization completed.
    -- Stationary point found.
 Normal termination of Gaussian 09 at Tue Oct 24 14:31:49 2017.

 ----------------------------------------------------------------------
 #P Geom=AllCheck Guess=TCheck SCRF=Check GenChk RPBE1PBE/6-311+G(d,p)
 Freq
 ----------------------------------------------------------------------

 Structure from the checkpoint file:  "Ac-4_cGalMe.chk"
 -------
 disacch
 -------
 Charge =  1 Multiplicity = 1

                         Standard orientation:
 ---------------------------------------------------------------------
 Center     Atomic      Atomic             Coordinates (Angstroms)
 Number     Number       Type             X           Y           Z
 ---------------------------------------------------------------------
      1          6           0        2.513869   -0.327473    0.688929
      2          6           0        1.198954    0.354235    0.387416
      3          6           0       -0.009112   -0.326948    0.990014
      4          6           0       -1.294976    0.488572    0.749536
      5          6           0       -1.212506    1.199775   -0.615662
      6          6           0       -0.217416    0.468059   -1.498148
      7          8           0        1.041644    0.395323   -1.043061
      8          8           0       -2.440032   -0.309243    0.759547
      9          8           0       -0.174776   -1.667602    0.410917
     10          8           0        3.527425    0.528885    0.276627
     11          1           0        2.559753   -1.296676    0.166139
     12          1           0        2.567227   -0.526355    1.773399
     13          1           0        1.238032    1.385464    0.758479
     14          1           0        0.147019   -0.542958    2.046472
     15          1           0       -1.329207    1.260409    1.532004
     16          1           0       -2.205187    1.158332   -1.082809
     17          1           0       -0.214923    0.792302   -2.535697
     18          8           0       -0.720175    2.498321   -0.513067
     19          6           0        4.817511   -0.030615    0.416383
     20          1           0        5.527526    0.721345    0.074652
     21          1           0        5.032757   -0.279199    1.464203
     22          1           0        4.926592   -0.934178   -0.197852
     23          6           0       -1.709667    3.471125   -0.206337
     24          1           0       -2.473754    3.508133   -0.991069
     25          1           0       -2.191445    3.269721    0.758644
     26          1           0       -1.195260    4.429227   -0.154087
     27          6           0       -2.807150   -0.802957    2.040995
     28          1           0       -2.089792   -1.546864    2.408601
     29          1           0       -2.888434    0.016345    2.764695
     30          1           0       -3.781581   -1.275435    1.925778
     31          6           0       -0.680189   -1.848558   -0.757314
     32          8           0       -0.797261   -0.959646   -1.651145
     33          6           0       -1.143796   -3.213259   -1.068096
     34          1           0       -2.201968   -3.264015   -0.785002
     35          1           0       -0.594440   -3.944449   -0.475908
     36          1           0       -1.060641   -3.411195   -2.135481
 ---------------------------------------------------------------------

 SCF Done:  E(RPBE1PBE) =  -880.927940372     A.U. after    3 cycles

 The electronic state is 1-A.
 Alpha  occ. eigenvalues --  -19.45905 -19.44876 -19.39478 -19.37128 -19.35757
 Alpha  occ. eigenvalues --  -19.32402 -10.57685 -10.50694 -10.46802 -10.44568
 Alpha  occ. eigenvalues --  -10.43995 -10.43841 -10.40256 -10.40020 -10.39253
 Alpha  occ. eigenvalues --  -10.38682 -10.35956  -1.37416  -1.29434  -1.26793
 Alpha  occ. eigenvalues --   -1.23672  -1.22019  -1.19138  -1.02090  -0.98847
 Alpha  occ. eigenvalues --   -0.95726  -0.89975  -0.88925  -0.86246  -0.82977
 Alpha  occ. eigenvalues --   -0.81555  -0.79068  -0.77544  -0.76810  -0.73449
 Alpha  occ. eigenvalues --   -0.72413  -0.68408  -0.67900  -0.67181  -0.66704
 Alpha  occ. eigenvalues --   -0.64648  -0.64135  -0.63400  -0.61960  -0.61431
 Alpha  occ. eigenvalues --   -0.60562  -0.59764  -0.58870  -0.58665  -0.58192
 Alpha  occ. eigenvalues --   -0.57737  -0.56615  -0.55522  -0.54961  -0.54622
 Alpha  occ. eigenvalues --   -0.53105  -0.51905  -0.51432  -0.49321  -0.48816
 Alpha  occ. eigenvalues --   -0.47461  -0.46592  -0.45002  -0.43779  -0.41853
 Alpha  occ. eigenvalues --   -0.38895
 Alpha virt. eigenvalues --   -0.20397  -0.12157  -0.10351  -0.09784  -0.08993
 Alpha virt. eigenvalues --   -0.08828  -0.07964  -0.07206  -0.06795  -0.06360
 Alpha virt. eigenvalues --   -0.06308  -0.05953  -0.04900  -0.04481  -0.04114

 Mulliken charges:
               1
     1  C   -0.450882
     2  C   -0.378307
     3  C    0.027426
     4  C   -0.325509
     5  C   -0.126255
     6  C   -0.484297
     7  O    0.097326
     8  O    0.057719
     9  O    0.209602
    10  O   -0.105543
    11  H    0.191053
    12  H    0.171397
    13  H    0.278935
    14  H    0.247540
    15  H    0.225649
    16  H    0.252892
    17  H    0.289730
    18  O    0.019364
    19  C   -0.293543
    20  H    0.187739
    21  H    0.157477
    22  H    0.160582
    23  C   -0.277669
    24  H    0.178082
    25  H    0.166896
    26  H    0.205996
    27  C   -0.301345
    28  H    0.179092
    29  H    0.183235
    30  H    0.208160
    31  C    0.068400
    32  O    0.265982
    33  C   -1.003859
    34  H    0.248124
    35  H    0.235958
    36  H    0.232854
 Sum of Mulliken charges =   1.00000

 Dipole moment (field-independent basis, Debye):
    X=             -3.1619    Y=             -3.3697    Z=              1.5713  Tot=              4.8807
 Quadrupole moment (field-independent basis, Debye-Ang):
   XX=            -74.9843   YY=            -72.6769   ZZ=            -85.0817
   XY=             -3.7723   XZ=              1.4863   YZ=              3.3906

  Exact polarizability: 149.297   3.574 148.490   0.576   0.184 127.126
 Approx polarizability: 182.687   7.792 192.792   5.346  -1.885 187.300

                      1                      2                      3
                      A                      A                      A
 Frequencies --     48.9832                62.9367                78.8517
 Red. masses --      3.9353                 3.6727                 1.8707
 Frc consts  --      0.0056                 0.0086                 0.0069
 IR Inten    --      0.3918                 0.6554                 2.7657

                      4                      5                      6
                      A                      A                      A
 Frequencies --     81.1051                82.8683                96.5500
 Red. masses --      1.3219                 2.4786                 2.5129
 Frc consts  --      0.0051                 0.0100                 0.0138
 IR Inten    --      1.0400                 4.0841                 0.4901

                      7                      8                      9
                      A                      A                      A
 Frequencies --     99.5315               117.7393               157.1567
 Red. masses --      2.7992                 2.3664                 2.6269
 Frc consts  --      0.0163                 0.0193                 0.0382
 IR Inten    --      3.7032                 3.3995                 3.5258

                     10                     11                     12
                      A                      A                      A
 Frequencies --    168.8788               178.6837               205.7646
 Red. masses --      1.3189                 5.1039                 1.3258
 Frc consts  --      0.0222                 0.0960                 0.0331
 IR Inten    --      1.1920                 0.5055                 1.7005

                     13                     14                     15
                      A                      A                      A
 Frequencies --    225.9254               251.6485               269.9049
 Red. masses --      1.2881                 3.4068                 3.8213
 Frc consts  --      0.0387                 0.1271                 0.1640
 IR Inten    --      2.8511                 6.7747                 4.8788

                     16                     17                     18
                      A                      A                      A
 Frequencies --    278.3999               291.5708               304.6087
 Red. masses --      5.0239                 4.3066                 4.0972
 Frc consts  --      0.2294                 0.2157                 0.2240
 IR Inten    --      0.8295                 2.3972                 6.2268

                     19                     20                     21
                      A                      A                      A
 Frequencies --    340.6597               349.9925               370.7217
 Red. masses --      5.3830                 4.0372                 4.1461
 Frc consts  --      0.3681                 0.2914                 0.3357
 IR Inten    --      4.2242                 1.8511                 1.1331

                     22                     23                     24
                      A                      A                      A
 Frequencies --    396.3241               458.7493               475.4541
 Red. masses --      5.1784                 4.3089                 4.3250
 Frc consts  --      0.4792                 0.5343                 0.5760
 IR Inten    --      3.9137                 5.0775                 7.5468

                     25                     26                     27
                      A                      A                      A
 Frequencies --    537.6504               553.2505               613.6939
 Red. masses --      4.0895                 3.1764                 3.4019
 Frc consts  --      0.6965                 0.5728                 0.7549
 IR Inten    --      6.7342                 7.0428                11.2581

                     28                     29                     30
                      A                      A                      A
 Frequencies --    656.8528               699.8003               745.5443
 Red. masses --      5.6895                 6.0004                 6.0094
 Frc consts  --      1.4463                 1.7313                 1.9680
 IR Inten    --     47.8551               122.7727                39.4755

                     31                     32                     33
                      A                      A                      A
 Frequencies --    774.0303               819.8330               855.5019
 Red. masses --      4.6627                 6.6546                 2.7986
 Frc consts  --      1.6459                 2.6353                 1.2068
 IR Inten    --      0.8374                28.0369                 9.0411

                     34                     35                     36
                      A                      A                      A
 Frequencies --    904.4943               959.9257               972.2276
 Red. masses --      3.1648                 4.7223                 3.0655
 Frc consts  --      1.5255                 2.5638                 1.7072
 IR Inten    --      9.7231                34.4793                22.9061

                     37                     38                     39
                      A                      A                      A
 Frequencies --    991.3179               996.4263              1021.9851
 Red. masses --      2.5130                 3.3025                 3.4644
 Frc consts  --      1.4550                 1.9319                 2.1319
 IR Inten    --     10.7215                18.0796                26.3845

                     40                     41                     42
                      A                      A                      A
 Frequencies --   1041.7583              1047.3775              1050.3203
 Red. masses --      1.9080                 2.7065                 1.9349
 Frc consts  --      1.2200                 1.7493                 1.2576
 IR Inten    --     21.1136                10.9742                41.3687

                     43                     44                     45
                      A                      A                      A
 Frequencies --   1070.9251              1097.0348              1138.7829
 Red. masses --      2.7128                 2.8195                 1.9416
 Frc consts  --      1.8331                 1.9992                 1.4835
 IR Inten    --     20.8227                 9.3075                45.8800

                     46                     47                     48
                      A                      A                      A
 Frequencies --   1148.3173              1160.0275              1170.0155
 Red. masses --      2.0662                 2.6404                 1.9631
 Frc consts  --      1.6053                 2.0934                 1.5833
 IR Inten    --     20.2407               102.1203                80.6658

                     49                     50                     51
                      A                      A                      A
 Frequencies --   1175.8508              1178.6048              1179.8195
 Red. masses --      1.2988                 1.4448                 1.3735
 Frc consts  --      1.0581                 1.1825                 1.1264
 IR Inten    --      1.7238                55.4252                10.8576

                     52                     53                     54
                      A                      A                      A
 Frequencies --   1192.7303              1222.0207              1232.7399
 Red. masses --      2.1345                 2.2588                 2.1133
 Frc consts  --      1.7891                 1.9874                 1.8921
 IR Inten    --     73.5759               155.5513                40.9431

                     55                     56                     57
                      A                      A                      A
 Frequencies --   1235.8979              1239.0179              1269.8403
 Red. masses --      2.0325                 2.2500                 1.4173
 Frc consts  --      1.8291                 2.0351                 1.3465
 IR Inten    --     50.4458                 3.5429                36.2256

                     58                     59                     60
                      A                      A                      A
 Frequencies --   1280.7402              1306.0085              1317.1540
 Red. masses --      1.2690                 1.6278                 1.3702
 Frc consts  --      1.2264                 1.6359                 1.4006
 IR Inten    --     13.5532                31.7175                11.4338

                     61                     62                     63
                      A                      A                      A
 Frequencies --   1331.6757              1346.1415              1361.3255
 Red. masses --      1.3585                 1.3040                 1.3652
 Frc consts  --      1.4194                 1.3922                 1.4906
 IR Inten    --      6.8968                49.0881                19.7879

                     64                     65                     66
                      A                      A                      A
 Frequencies --   1366.5227              1386.5742              1395.3860
 Red. masses --      1.3037                 1.2752                 1.7776
 Frc consts  --      1.4343                 1.4445                 2.0393
 IR Inten    --      4.2310                 3.0518                47.9205

                     67                     68                     69
                      A                      A                      A
 Frequencies --   1403.4095              1433.6814              1439.0014
 Red. masses --      1.3897                 1.6695                 1.0950
 Frc consts  --      1.6126                 2.0219                 1.3359
 IR Inten    --     25.1583                16.5897                61.3905

                     70                     71                     72
                      A                      A                      A
 Frequencies --   1450.2454              1452.3550              1474.6656
 Red. masses --      1.2763                 1.5420                 1.1355
 Frc consts  --      1.5816                 1.9164                 1.4548
 IR Inten    --     86.4017                 3.7286                 2.9672

                     73                     74                     75
                      A                      A                      A
 Frequencies --   1476.1540              1477.7696              1487.8391
 Red. masses --      1.1504                 1.2113                 1.0416
 Frc consts  --      1.4770                 1.5585                 1.3585
 IR Inten    --      4.8927                 2.9909                13.1897

                     76                     77                     78
                      A                      A                      A
 Frequencies --   1490.6133              1490.7894              1492.4237
 Red. masses --      1.0640                 1.0490                 1.0675
 Frc consts  --      1.3929                 1.3735                 1.4009
 IR Inten    --     14.3204                14.8646                13.9549

                     79                     80                     81
                      A                      A                      A
 Frequencies --   1499.1977              1500.9841              1510.4210
 Red. masses --      1.0706                 1.0546                 1.2067
 Frc consts  --      1.4178                 1.3999                 1.6219
 IR Inten    --     15.3342                 1.1110                58.7420

                     82                     83                     84
                      A                      A                      A
 Frequencies --   1511.7042              1624.0622              2972.2048
 Red. masses --      2.5512                 5.6572                 1.0576
 Frc consts  --      3.4350                 8.7913                 5.5046
 IR Inten    --    228.5794               278.2464                39.7180

                     85                     86                     87
                      A                      A                      A
 Frequencies --   3010.3631              3013.6171              3023.4594
 Red. masses --      1.0417                 1.0960                 1.0362
 Frc consts  --      5.5621                 5.8645                 5.5810
 IR Inten    --     48.0827                34.6697                30.0719

                     88                     89                     90
                      A                      A                      A
 Frequencies --   3025.2268              3031.2895              3055.5446
 Red. masses --      1.0364                 1.0829                 1.0856
 Frc consts  --      5.5884                 5.8625                 5.9716
 IR Inten    --     25.0785                10.1543                 6.5974

                     91                     92                     93
                      A                      A                      A
 Frequencies --   3066.0062              3074.0346              3080.8844
 Red. masses --      1.0428                 1.1056                 1.0852
 Frc consts  --      5.7757                 6.1558                 6.0687
 IR Inten    --     18.4169                36.5633                 2.5221

                     94                     95                     96
                      A                      A                      A
 Frequencies --   3094.9835              3097.0688              3150.9585
 Red. masses --      1.1055                 1.1062                 1.0891
 Frc consts  --      6.2394                 6.2515                 6.3708
 IR Inten    --     26.8233                23.9900                 1.4328

                     97                     98                     99
                      A                      A                      A
 Frequencies --   3153.5119              3168.5650              3172.7433
 Red. masses --      1.0904                 1.0991                 1.1010
 Frc consts  --      6.3889                 6.5016                 6.5297
 IR Inten    --      2.9922                 8.8778                 4.7646

                    100                    101                    102
                      A                      A                      A
 Frequencies --   3177.8524              3191.4470              3204.3642
 Red. masses --      1.1009                 1.0927                 1.1076
 Frc consts  --      6.5501                 6.5575                 6.7006
 IR Inten    --      4.5223                 1.3183                 2.1650

 - Thermochemistry -
 -------------------
 Temperature   298.150 Kelvin.  Pressure   1.00000 Atm.
 Atom     1 has atomic number  6 and mass  12.00000

 Molecular mass:   247.11816 amu.
 Principal axes and moments of inertia in atomic units:
                           1         2         3
     Eigenvalues --  3068.239114618.375375877.19687
           X            0.99977  -0.02153  -0.00148
           Y            0.02154   0.99976   0.00335
           Z            0.00140  -0.00338   0.99999
 This molecule is an asymmetric top.
 Rotational symmetry number  1.
 Warning -- assumption of classical behavior for rotation
           may cause significant error
 Rotational temperatures (Kelvin)      0.02823     0.01875     0.01474
 Rotational constants (GHZ):           0.58820     0.39077     0.30708
 Zero-point vibrational energy     803995.8 (Joules/Mol)
                                  192.15960 (Kcal/Mol)
 Warning -- explicit consideration of  27 degrees of freedom as
           vibrations may cause significant error
 Vibrational temperatures:     70.48    90.55   113.45   116.69   119.23
          (Kelvin)            138.91   143.20   169.40   226.11   242.98
                              257.09   296.05   325.06   362.07   388.33
                              400.55   419.50   438.26   490.13   503.56
                              533.39   570.22   660.04   684.07   773.56
                              796.00   882.97   945.06  1006.86  1072.67
                             1113.66  1179.56  1230.87  1301.36  1381.12
                             1398.82  1426.28  1433.63  1470.41  1498.86
                             1506.94  1511.17  1540.82  1578.39  1638.45
                             1652.17  1669.02  1683.39  1691.78  1695.75
                             1697.49  1716.07  1758.21  1773.64  1778.18
                             1782.67  1827.01  1842.70  1879.05  1895.09
                             1915.98  1936.80  1958.64  1966.12  1994.97
                             2007.65  2019.19  2062.75  2070.40  2086.58
                             2089.61  2121.71  2123.85  2126.18  2140.67
                             2144.66  2144.91  2147.26  2157.01  2159.58
                             2173.16  2175.00  2336.66  4276.33  4331.24
                             4335.92  4350.08  4352.62  4361.34  4396.24
                             4411.29  4422.84  4432.70  4452.99  4455.99
                             4533.52  4537.19  4558.85  4564.86  4572.22
                             4591.77  4610.36

 Zero-point correction=                           0.306226 (Hartree/Particle)
 Thermal correction to Energy=                    0.324120
 Thermal correction to Enthalpy=                  0.325064
 Thermal correction to Gibbs Free Energy=         0.260363
 Sum of electronic and zero-point Energies=           -880.621715
 Sum of electronic and thermal Energies=              -880.603820
 Sum of electronic and thermal Enthalpies=            -880.602876
 Sum of electronic and thermal Free Energies=         -880.667577

                     E (Thermal)             CV                S
                      KCal/Mol        Cal/Mol-Kelvin    Cal/Mol-Kelvin
 Total                  203.388             65.230            136.175
 Electronic               0.000              0.000              0.000
 Translational            0.889              2.981             42.415
 Rotational               0.889              2.981             32.788
 Vibrational            201.611             59.268             60.973
 Vibration     1          0.595              1.978              4.858
 Vibration     2          0.597              1.972              4.363
 Vibration     3          0.600              1.963              3.919
 Vibration     4          0.600              1.962              3.864
 Vibration     5          0.600              1.961              3.822
 Vibration     6          0.603              1.952              3.523
 Vibration     7          0.604              1.949              3.463
 Vibration     8          0.608              1.935              3.137
 Vibration     9          0.621              1.895              2.584
 Vibration    10          0.625              1.881              2.448
 Vibration    11          0.629              1.869              2.342
 Vibration    12          0.640              1.832              2.081
 Vibration    13          0.650              1.802              1.911
 Vibration    14          0.664              1.760              1.719
 Vibration    15          0.674              1.729              1.597
 Vibration    16          0.679              1.713              1.543
 Vibration    17          0.687              1.689              1.465
 Vibration    18          0.696              1.665              1.391
 Vibration    19          0.720              1.594              1.209
 Vibration    20          0.727              1.575              1.166
 Vibration    21          0.743              1.532              1.077
 Vibration    22          0.763              1.478              0.976
 Vibration    23          0.817              1.342              0.770
 Vibration    24          0.832              1.305              0.722
 Vibration    25          0.893              1.167              0.570
 Vibration    26          0.909              1.133              0.537
 Vibration    27          0.973              1.003              0.427

 Normal termination of Gaussian 09 at Tue Oct 24 14:58:15 2017.
