 Gaussian 09, Revision D.01,
 Gaussian 09:  EM64L-G09RevD.01 24-Apr-2013

 -------------------------------------------------------------------
 #P PBE1PBE/6-311+G(d,p) opt optcyc=999 freq EmpiricalDispersion=GD3
 -------------------------------------------------------------------

 -------
 disacch
 -------
 Symbolic Z-matrix:
 Charge =  1 Multiplicity = 1

 SCF Done:  E(RPBE1PBE) =  -880.928124680     A.U. after   17 cycles
 SCF Done:  E(RPBE1PBE) =  -880.932281484     A.U. after   15 cycles
 SCF Done:  E(RPBE1PBE) =  -880.932750985     A.U. after   13 cycles
 SCF Done:  E(RPBE1PBE) =  -880.933000105     A.U. after   18 cycles
 SCF Done:  E(RPBE1PBE) =  -880.933112051     A.U. after   12 cycles
 SCF Done:  E(RPBE1PBE) =  -880.933178387     A.U. after   15 cycles
 SCF Done:  E(RPBE1PBE) =  -880.933193842     A.U. after   14 cycles
 SCF Done:  E(RPBE1PBE) =  -880.933197000     A.U. after   14 cycles
 SCF Done:  E(RPBE1PBE) =  -880.933198372     A.U. after   12 cycles
 SCF Done:  E(RPBE1PBE) =  -880.933199482     A.U. after   13 cycles
 SCF Done:  E(RPBE1PBE) =  -880.933199938     A.U. after   10 cycles
 SCF Done:  E(RPBE1PBE) =  -880.933200362     A.U. after   15 cycles
 SCF Done:  E(RPBE1PBE) =  -880.933200779     A.U. after   11 cycles
 SCF Done:  E(RPBE1PBE) =  -880.933201374     A.U. after    9 cycles
 SCF Done:  E(RPBE1PBE) =  -880.933202190     A.U. after   14 cycles
 SCF Done:  E(RPBE1PBE) =  -880.933202476     A.U. after    8 cycles
 Optimization completed.
    -- Stationary point found.
 Normal termination of Gaussian 09 at Sun Jan  8 07:19:20 2017.

 ----------------------------------------------------------------------
 #P Geom=AllCheck Guess=TCheck SCRF=Check GenChk RPBE1PBE/6-311+G(d,p)
 Freq
 ----------------------------------------------------------------------

 Structure from the checkpoint file:  "Ac-4_cGalMe.chk"
 -------
 disacch
 -------
 Charge =  1 Multiplicity = 1

                         Standard orientation:
 ---------------------------------------------------------------------
 Center     Atomic      Atomic             Coordinates (Angstroms)
 Number     Number       Type             X           Y           Z
 ---------------------------------------------------------------------
      1          6           0        2.047351   -1.571382   -0.873663
      2          6           0        0.605390   -1.262019   -0.549125
      3          6           0        0.104401    0.097659   -0.999890
      4          6           0       -1.408061    0.246947   -0.735774
      5          6           0       -1.778089   -0.468513    0.578238
      6          6           0       -0.533305   -0.655406    1.428766
      7          8           0        0.448485   -1.389346    0.872323
      8          8           0       -1.806080    1.578401   -0.627354
      9          8           0        0.805830    1.185246   -0.319803
     10          8           0        2.871440   -0.567692   -0.358070
     11          1           0        2.151761   -1.657569   -1.967424
     12          1           0        2.286197   -2.552168   -0.436547
     13          1           0       -0.031731   -2.012846   -1.035170
     14          1           0        0.357902    0.268403   -2.045613
     15          1           0       -1.924979   -0.267686   -1.559639
     16          1           0       -2.494306    0.162741    1.120253
     17          1           0       -0.742143   -1.034004    2.426130
     18          8           0       -2.256607   -1.761133    0.364729
     19          6           0        4.247064   -0.865605   -0.506049
     20          1           0        4.804384   -0.028857   -0.085822
     21          1           0        4.512267   -1.782801    0.034554
     22          1           0        4.516999   -0.980342   -1.563660
     23          6           0       -3.645208   -1.821321    0.070094
     24          1           0       -4.236368   -1.425437    0.903657
     25          1           0       -3.891240   -1.265016   -0.843043
     26          1           0       -3.885346   -2.872951   -0.078142
     27          6           0       -1.761763    2.311925   -1.842671
     28          1           0       -0.730887    2.471379   -2.181456
     29          1           0       -2.330751    1.799932   -2.627919
     30          1           0       -2.221746    3.278082   -1.640524
     31          6           0        0.640748    1.450696    0.917387
     32          8           0       -0.010450    0.742892    1.749904
     33          6           0        1.306792    2.663887    1.424382
     34          1           0        1.345685    3.428511    0.649902
     35          1           0        2.334184    2.380874    1.683303
     36          1           0        0.807250    3.021606    2.323154
 ---------------------------------------------------------------------

 SCF Done:  E(RPBE1PBE) =  -880.933202477     A.U. after    6 cycles

 The electronic state is 1-A.
 Alpha  occ. eigenvalues --  -19.45223 -19.44395 -19.39105 -19.36430 -19.35545
 Alpha  occ. eigenvalues --  -19.33583 -10.56959 -10.50281 -10.46360 -10.44250
 Alpha  occ. eigenvalues --  -10.44068 -10.43455 -10.40483 -10.39424 -10.38564
 Alpha  occ. eigenvalues --  -10.38520 -10.37074  -1.36950  -1.29156  -1.26322
 Alpha  occ. eigenvalues --   -1.23129  -1.21689  -1.19948  -1.01647  -0.98714
 Alpha  occ. eigenvalues --   -0.95190  -0.90081  -0.88484  -0.86056  -0.83096
 Alpha  occ. eigenvalues --   -0.81594  -0.78797  -0.77565  -0.77001  -0.72877
 Alpha  occ. eigenvalues --   -0.72151  -0.68050  -0.67340  -0.66714  -0.66026
 Alpha  occ. eigenvalues --   -0.64254  -0.64144  -0.63133  -0.62157  -0.61057
 Alpha  occ. eigenvalues --   -0.60789  -0.59982  -0.58833  -0.58184  -0.57649
 Alpha  occ. eigenvalues --   -0.57244  -0.56231  -0.55407  -0.54779  -0.53992
 Alpha  occ. eigenvalues --   -0.52865  -0.52613  -0.51847  -0.49010  -0.48470
 Alpha  occ. eigenvalues --   -0.47254  -0.46099  -0.46022  -0.43138  -0.41610
 Alpha  occ. eigenvalues --   -0.40014
 Alpha virt. eigenvalues --   -0.19519  -0.11671  -0.10124  -0.09270  -0.08651
 Alpha virt. eigenvalues --   -0.08351  -0.07847  -0.06894  -0.06593  -0.06311
 Alpha virt. eigenvalues --   -0.05942  -0.05783  -0.04783  -0.04524  -0.03726

 Mulliken charges:
               1
     1  C   -0.721910
     2  C   -0.200643
     3  C   -0.001687
     4  C   -0.246095
     5  C   -0.257439
     6  C   -0.280188
     7  O    0.110453
     8  O    0.059438
     9  O    0.289811
    10  O   -0.126582
    11  H    0.191890
    12  H    0.214941
    13  H    0.273267
    14  H    0.240010
    15  H    0.221815
    16  H    0.257135
    17  H    0.281874
    18  O    0.019812
    19  C   -0.263933
    20  H    0.178656
    21  H    0.169786
    22  H    0.165573
    23  C   -0.267400
    24  H    0.177513
    25  H    0.164987
    26  H    0.202362
    27  C   -0.317279
    28  H    0.176153
    29  H    0.181648
    30  H    0.207516
    31  C    0.072438
    32  O    0.311488
    33  C   -1.199049
    34  H    0.231479
    35  H    0.248468
    36  H    0.233693
 Sum of Mulliken charges =   1.00000

 Dipole moment (field-independent basis, Debye):
    X=             -0.0576    Y=              1.9888    Z=             -1.3082  Tot=              2.3811
 Quadrupole moment (field-independent basis, Debye-Ang):
   XX=            -68.2711   YY=            -80.3661   ZZ=            -83.9592
   XY=              3.3771   XZ=              1.8247   YZ=              4.7073

  Exact polarizability: 152.023   6.799 142.174   0.983   3.085 127.936
 Approx polarizability: 181.288   7.324 190.528  -2.969   4.840 188.935

                      1                      2                      3
                      A                      A                      A
 Frequencies --     38.5559                55.1027                64.2569
 Red. masses --      3.7162                 3.6129                 1.0422
 Frc consts  --      0.0033                 0.0065                 0.0025
 IR Inten    --      1.3536                 1.6876                 0.5610

                      4                      5                      6
                      A                      A                      A
 Frequencies --     78.2811                82.4408                99.2774
 Red. masses --      3.4730                 2.9783                 2.7656
 Frc consts  --      0.0125                 0.0119                 0.0161
 IR Inten    --      0.8837                 2.1284                 5.3098

                      7                      8                      9
                      A                      A                      A
 Frequencies --    104.2173               118.0554               156.1621
 Red. masses --      2.2477                 2.0148                 4.0990
 Frc consts  --      0.0144                 0.0165                 0.0589
 IR Inten    --      2.9138                 2.9355                 0.6068

                     10                     11                     12
                      A                      A                      A
 Frequencies --    170.0923               192.2010               204.5437
 Red. masses --      1.2216                 1.5113                 2.2402
 Frc consts  --      0.0208                 0.0329                 0.0552
 IR Inten    --      0.2855                 0.8315                 0.4805

                     13                     14                     15
                      A                      A                      A
 Frequencies --    231.8022               243.8122               269.8880
 Red. masses --      2.1947                 2.4596                 3.7164
 Frc consts  --      0.0695                 0.0861                 0.1595
 IR Inten    --      3.7473                 5.0735                 6.5724

                     16                     17                     18
                      A                      A                      A
 Frequencies --    272.4496               300.1879               320.3809
 Red. masses --      4.3525                 3.8131                 3.4288
 Frc consts  --      0.1904                 0.2024                 0.2074
 IR Inten    --      1.2632                 1.4977                 0.9920

                     19                     20                     21
                      A                      A                      A
 Frequencies --    341.8143               344.1932               372.8726
 Red. masses --      4.3147                 3.9690                 4.8263
 Frc consts  --      0.2970                 0.2770                 0.3954
 IR Inten    --      1.0736                 3.8333                 4.6678

                     22                     23                     24
                      A                      A                      A
 Frequencies --    405.8404               460.5460               472.7943
 Red. masses --      4.9364                 4.3501                 4.4525
 Frc consts  --      0.4790                 0.5436                 0.5864
 IR Inten    --      4.3362                 6.5545                 4.1643

                     25                     26                     27
                      A                      A                      A
 Frequencies --    528.0146               605.1322               629.6867
 Red. masses --      4.2203                 3.4734                 4.5585
 Frc consts  --      0.6932                 0.7494                 1.0649
 IR Inten    --     10.5917                 6.6728                 5.8413

                     28                     29                     30
                      A                      A                      A
 Frequencies --    669.5177               732.7591               750.1704
 Red. masses --      5.2993                 6.2115                 5.4599
 Frc consts  --      1.3996                 1.9650                 1.8103
 IR Inten    --     30.1504               135.2626                 7.2821

                     31                     32                     33
                      A                      A                      A
 Frequencies --    788.1309               826.2551               857.5628
 Red. masses --      5.0418                 6.7744                 3.1031
 Frc consts  --      1.8452                 2.7249                 1.3446
 IR Inten    --     15.9434                22.4227                 6.4073

                     34                     35                     36
                      A                      A                      A
 Frequencies --    905.6251               936.6986               963.8512
 Red. masses --      3.1110                 2.8685                 3.4985
 Frc consts  --      1.5033                 1.4829                 1.9149
 IR Inten    --      9.5232                13.1541                11.6827

                     37                     38                     39
                      A                      A                      A
 Frequencies --    985.9081              1000.7207              1008.0965
 Red. masses --      2.4621                 4.4467                 2.7149
 Frc consts  --      1.4100                 2.6237                 1.6256
 IR Inten    --      2.8445                28.3336                34.1704

                     40                     41                     42
                      A                      A                      A
 Frequencies --   1041.5320              1048.0631              1049.8863
 Red. masses --      1.9918                 2.5979                 2.0003
 Frc consts  --      1.2731                 1.6813                 1.2990
 IR Inten    --     22.2967                 8.2779                38.8887

                     43                     44                     45
                      A                      A                      A
 Frequencies --   1073.7220              1088.2914              1114.8641
 Red. masses --      2.6593                 3.0886                 1.8658
 Frc consts  --      1.8064                 2.1553                 1.3663
 IR Inten    --     32.6847                38.3846                35.3856

                     46                     47                     48
                      A                      A                      A
 Frequencies --   1155.4064              1160.3773              1169.9173
 Red. masses --      2.0048                 2.7056                 2.1895
 Frc consts  --      1.5769                 2.1464                 1.7657
 IR Inten    --      9.3290               150.7131                94.8770

                     49                     50                     51
                      A                      A                      A
 Frequencies --   1177.3135              1178.0973              1180.5122
 Red. masses --      1.4282                 1.3682                 1.4392
 Frc consts  --      1.1663                 1.1189                 1.1817
 IR Inten    --     38.1787                20.6402                23.0184

                     52                     53                     54
                      A                      A                      A
 Frequencies --   1184.1222              1220.0142              1233.5522
 Red. masses --      1.8610                 2.1685                 2.1738
 Frc consts  --      1.5374                 1.9017                 1.9489
 IR Inten    --     29.9903               103.9159                 8.9933

                     55                     56                     57
                      A                      A                      A
 Frequencies --   1237.8166              1238.3945              1265.9576
 Red. masses --      2.2350                 2.1987                 1.5134
 Frc consts  --      2.0177                 1.9867                 1.4291
 IR Inten    --     27.0658                78.3100                40.1641

                     58                     59                     60
                      A                      A                      A
 Frequencies --   1286.8513              1313.7353              1315.7739
 Red. masses --      1.2024                 1.3270                 1.3776
 Frc consts  --      1.1732                 1.3494                 1.4052
 IR Inten    --      9.2464                35.3516                14.2680

                     61                     62                     63
                      A                      A                      A
 Frequencies --   1334.1743              1354.6827              1360.3966
 Red. masses --      1.3859                 1.3108                 1.2759
 Frc consts  --      1.4535                 1.4173                 1.3913
 IR Inten    --      2.5560                17.1875                36.8473

                     64                     65                     66
                      A                      A                      A
 Frequencies --   1380.0054              1386.3720              1404.2005
 Red. masses --      1.5529                 1.3422                 1.3704
 Frc consts  --      1.7424                 1.5200                 1.5920
 IR Inten    --     39.5138                 1.5587                16.5444

                     67                     68                     69
                      A                      A                      A
 Frequencies --   1414.4046              1427.6563              1436.9658
 Red. masses --      1.6888                 1.5457                 1.2632
 Frc consts  --      1.9906                 1.8562                 1.5368
 IR Inten    --     11.5696                 6.5344                43.5139

                     70                     71                     72
                      A                      A                      A
 Frequencies --   1440.7834              1452.0375              1474.7840
 Red. masses --      1.4177                 1.2197                 1.1319
 Frc consts  --      1.7340                 1.5152                 1.4505
 IR Inten    --     20.6889                65.0867                 4.5322

                     73                     74                     75
                      A                      A                      A
 Frequencies --   1476.7029              1476.9314              1485.7209
 Red. masses --      1.1542                 1.1434                 1.0409
 Frc consts  --      1.4829                 1.4695                 1.3537
 IR Inten    --      2.1652                 5.0484                13.3491

                     76                     77                     78
                      A                      A                      A
 Frequencies --   1490.5944              1492.7733              1493.1411
 Red. masses --      1.0423                 1.0672                 1.0725
 Frc consts  --      1.3645                 1.4012                 1.4087
 IR Inten    --     13.4293                11.7143                12.8075

                     79                     80                     81
                      A                      A                      A
 Frequencies --   1499.0507              1500.2046              1511.1211
 Red. masses --      1.0675                 1.0475                 1.0929
 Frc consts  --      1.4133                 1.3890                 1.4704
 IR Inten    --     18.0783                 3.0928                 7.0380

                     82                     83                     84
                      A                      A                      A
 Frequencies --   1519.2361              1629.7845              2994.5907
 Red. masses --      3.9602                 5.5402                 1.0597
 Frc consts  --      5.3855                 8.6703                 5.5988
 IR Inten    --    290.1448               289.6466                27.3684

                     85                     86                     87
                      A                      A                      A
 Frequencies --   3017.5735              3022.0912              3023.7130
 Red. masses --      1.0357                 1.0610                 1.0374
 Frc consts  --      5.5565                 5.7091                 5.5883
 IR Inten    --     51.1795                17.9952                23.0438

                     88                     89                     90
                      A                      A                      A
 Frequencies --   3024.6996              3042.0203              3055.4966
 Red. masses --      1.0557                 1.1023                 1.0855
 Frc consts  --      5.6906                 6.0102                 5.9708
 IR Inten    --     26.9763                20.2775                 5.1521

                     91                     92                     93
                      A                      A                      A
 Frequencies --   3062.3468              3065.9972              3083.9447
 Red. masses --      1.0844                 1.0435                 1.1063
 Frc consts  --      5.9916                 5.7795                 6.1989
 IR Inten    --      8.9676                16.0393                25.8488

                     94                     95                     96
                      A                      A                      A
 Frequencies --   3093.4600              3095.0584              3152.8231
 Red. masses --      1.1064                 1.1055                 1.0887
 Frc consts  --      6.2382                 6.2394                 6.3764
 IR Inten    --     26.6843                26.2391                 1.4213

                     97                     98                     99
                      A                      A                      A
 Frequencies --   3155.4173              3162.6096              3172.7879
 Red. masses --      1.0896                 1.1003                 1.1006
 Frc consts  --      6.3922                 6.4839                 6.5275
 IR Inten    --      2.9657                11.3058                 4.9935

                    100                    101                    102
                      A                      A                      A
 Frequencies --   3176.1274              3190.2326              3206.6987
 Red. masses --      1.1009                 1.0923                 1.1076
 Frc consts  --      6.5435                 6.5497                 6.7106
 IR Inten    --      5.4154                 1.3942                 1.6856

 - Thermochemistry -
 -------------------
 Temperature   298.150 Kelvin.  Pressure   1.00000 Atm.
 Atom     1 has atomic number  6 and mass  12.00000

 Molecular mass:   247.11816 amu.
 Principal axes and moments of inertia in atomic units:
                           1         2         3
     Eigenvalues --  2759.516414454.972805376.33397
           X            0.99999   0.00092   0.00398
           Y           -0.00097   0.99992   0.01231
           Z           -0.00397  -0.01232   0.99992
 This molecule is an asymmetric top.
 Rotational symmetry number  1.
 Warning -- assumption of classical behavior for rotation
           may cause significant error
 Rotational temperatures (Kelvin)      0.03139     0.01944     0.01611
 Rotational constants (GHZ):           0.65401     0.40511     0.33568
 Zero-point vibrational energy     804856.6 (Joules/Mol)
                                  192.36534 (Kcal/Mol)
 Warning -- explicit consideration of  26 degrees of freedom as
           vibrations may cause significant error
 Vibrational temperatures:     55.47    79.28    92.45   112.63   118.61
          (Kelvin)            142.84   149.95   169.86   224.68   244.72
                              276.53   294.29   333.51   350.79   388.31
                              391.99   431.90   460.96   491.79   495.22
                              536.48   583.91   662.62   680.24   759.69
                              870.65   905.98   963.29  1054.28  1079.33
                             1133.94  1188.80  1233.84  1302.99  1347.70
                             1386.77  1418.50  1439.81  1450.42  1498.53
                             1507.93  1510.55  1544.84  1565.81  1604.04
                             1662.37  1669.52  1683.25  1693.89  1695.02
                             1698.49  1703.69  1755.33  1774.80  1780.94
                             1781.77  1821.43  1851.49  1890.17  1893.10
                             1919.58  1949.08  1957.30  1985.52  1994.68
                             2020.33  2035.01  2054.08  2067.47  2072.96
                             2089.16  2121.88  2124.64  2124.97  2137.62
                             2144.63  2147.77  2148.29  2156.80  2158.46
                             2174.16  2185.84  2344.89  4308.54  4341.61
                             4348.11  4350.44  4351.86  4376.78  4396.17
                             4406.03  4411.28  4437.10  4450.79  4453.09
                             4536.20  4539.94  4550.28  4564.93  4569.73
                             4590.03  4613.72

 Zero-point correction=                           0.306554 (Hartree/Particle)
 Thermal correction to Energy=                    0.324411
 Thermal correction to Enthalpy=                  0.325356
 Thermal correction to Gibbs Free Energy=         0.260439
 Sum of electronic and zero-point Energies=           -880.626649
 Sum of electronic and thermal Energies=              -880.608791
 Sum of electronic and thermal Enthalpies=            -880.607847
 Sum of electronic and thermal Free Energies=         -880.672763

                     E (Thermal)             CV                S
                      KCal/Mol        Cal/Mol-Kelvin    Cal/Mol-Kelvin
 Total                  203.571             64.981            136.627
 Electronic               0.000              0.000              0.000
 Translational            0.889              2.981             42.415
 Rotational               0.889              2.981             32.558
 Vibrational            201.794             59.019             61.655
 Vibration     1          0.594              1.981              5.332
 Vibration     2          0.596              1.976              4.625
 Vibration     3          0.597              1.971              4.322
 Vibration     4          0.600              1.964              3.934
 Vibration     5          0.600              1.961              3.832
 Vibration     6          0.604              1.950              3.468
 Vibration     7          0.605              1.946              3.374
 Vibration     8          0.608              1.934              3.132
 Vibration     9          0.620              1.896              2.596
 Vibration    10          0.625              1.879              2.434
 Vibration    11          0.634              1.851              2.207
 Vibration    12          0.640              1.833              2.092
 Vibration    13          0.653              1.792              1.865
 Vibration    14          0.659              1.773              1.775
 Vibration    15          0.674              1.729              1.597
 Vibration    16          0.675              1.724              1.581
 Vibration    17          0.693              1.673              1.416
 Vibration    18          0.706              1.635              1.308
 Vibration    19          0.721              1.592              1.204
 Vibration    20          0.723              1.587              1.193
 Vibration    21          0.744              1.528              1.068
 Vibration    22          0.771              1.458              0.941
 Vibration    23          0.818              1.338              0.765
 Vibration    24          0.830              1.310              0.730
 Vibration    25          0.883              1.188              0.592
 Vibration    26          0.964              1.021              0.441

 Normal termination of Gaussian 09 at Sun Jan  8 07:46:18 2017.
