 Gaussian 09, Revision D.01,
 Gaussian 09:  EM64L-G09RevD.01 24-Apr-2013

 -------------------------------------------------------------------
 #P PBE1PBE/6-311+G(d,p) opt optcyc=999 freq EmpiricalDispersion=GD3
 -------------------------------------------------------------------

 -------
 disacch
 -------
 Symbolic Z-matrix:
 Charge =  1 Multiplicity = 1

 SCF Done:  E(RPBE1PBE) =  -880.924284918     A.U. after   18 cycles
 SCF Done:  E(RPBE1PBE) =  -880.928625058     A.U. after   14 cycles
 SCF Done:  E(RPBE1PBE) =  -880.929262312     A.U. after   11 cycles
 SCF Done:  E(RPBE1PBE) =  -880.929486267     A.U. after   14 cycles
 SCF Done:  E(RPBE1PBE) =  -880.929560077     A.U. after   15 cycles
 SCF Done:  E(RPBE1PBE) =  -880.929592339     A.U. after   16 cycles
 SCF Done:  E(RPBE1PBE) =  -880.929598044     A.U. after   11 cycles
 SCF Done:  E(RPBE1PBE) =  -880.929598907     A.U. after   15 cycles
 SCF Done:  E(RPBE1PBE) =  -880.929599305     A.U. after    9 cycles
 SCF Done:  E(RPBE1PBE) =  -880.929599389     A.U. after    8 cycles
 SCF Done:  E(RPBE1PBE) =  -880.929599488     A.U. after   10 cycles
 SCF Done:  E(RPBE1PBE) =  -880.929599483     A.U. after   13 cycles
 SCF Done:  E(RPBE1PBE) =  -880.929599572     A.U. after    9 cycles
 SCF Done:  E(RPBE1PBE) =  -880.929599612     A.U. after   13 cycles
 SCF Done:  E(RPBE1PBE) =  -880.929599687     A.U. after   10 cycles
 Optimization completed.
    -- Stationary point found.
 Normal termination of Gaussian 09 at Tue Oct 24 14:24:18 2017.

 ----------------------------------------------------------------------
 #P Geom=AllCheck Guess=TCheck SCRF=Check GenChk RPBE1PBE/6-311+G(d,p)
 Freq
 ----------------------------------------------------------------------

 Structure from the checkpoint file:  "Ac-4_cGalMe.chk"
 -------
 disacch
 -------
 Charge =  1 Multiplicity = 1

                         Standard orientation:
 ---------------------------------------------------------------------
 Center     Atomic      Atomic             Coordinates (Angstroms)
 Number     Number       Type             X           Y           Z
 ---------------------------------------------------------------------
      1          6           0       -2.731408    0.283439   -0.354920
      2          6           0       -1.339796   -0.334798   -0.332627
      3          6           0       -0.460341    0.228472    0.758773
      4          6           0        0.880235   -0.499325    0.827293
      5          6           0        1.323467   -0.915192   -0.598980
      6          6           0        0.618622   -0.031149   -1.614450
      7          8           0       -0.728288   -0.085335   -1.608674
      8          8           0        1.796066    0.342176    1.463628
      9          8           0       -0.235842    1.664905    0.510568
     10          8           0       -3.369474    0.020505    0.861496
     11          1           0       -3.282544   -0.111314   -1.216942
     12          1           0       -2.652329    1.368586   -0.474832
     13          1           0       -1.410231   -1.418351   -0.182448
     14          1           0       -0.982362    0.231944    1.714169
     15          1           0        0.702521   -1.420183    1.401540
     16          1           0        2.406412   -0.763729   -0.702614
     17          1           0        0.979705   -0.152173   -2.632818
     18          8           0        0.939697   -2.216930   -0.921961
     19          6           0       -4.201427   -1.127212    0.848980
     20          1           0       -4.621242   -1.222511    1.849927
     21          1           0       -5.018292   -1.010510    0.127402
     22          1           0       -3.640071   -2.040613    0.610817
     23          6           0        1.862019   -3.212097   -0.504497
     24          1           0        2.833815   -3.070595   -0.991982
     25          1           0        1.997996   -3.209134    0.584562
     26          1           0        1.443543   -4.170922   -0.806227
     27          6           0        2.893807   -0.333785    2.059218
     28          1           0        2.547410   -1.016966    2.843154
     29          1           0        3.477656   -0.895024    1.319470
     30          1           0        3.528495    0.431159    2.503850
     31          6           0        0.587918    2.092663   -0.367965
     32          8           0        1.083726    1.396708   -1.309296
     33          6           0        0.985516    3.507838   -0.266435
     34          1           0        1.787855    3.561883    0.478751
     35          1           0        0.149190    4.102313    0.103185
     36          1           0        1.353718    3.876779   -1.221384
 ---------------------------------------------------------------------

 SCF Done:  E(RPBE1PBE) =  -880.929599687     A.U. after    1 cycles

 The electronic state is 1-A.
 Alpha  occ. eigenvalues --  -19.45411 -19.44983 -19.39796 -19.36637 -19.36142
 Alpha  occ. eigenvalues --  -19.33247 -10.57447 -10.50923 -10.46001 -10.44344
 Alpha  occ. eigenvalues --  -10.44023 -10.43727 -10.40037 -10.39635 -10.39231
 Alpha  occ. eigenvalues --  -10.38919 -10.36922  -1.37325  -1.29333  -1.26773
 Alpha  occ. eigenvalues --   -1.23386  -1.22188  -1.19600  -1.01892  -0.98757
 Alpha  occ. eigenvalues --   -0.95425  -0.90193  -0.88033  -0.86401  -0.83682
 Alpha  occ. eigenvalues --   -0.82167  -0.79308  -0.77511  -0.76338  -0.73339
 Alpha  occ. eigenvalues --   -0.72304  -0.68530  -0.67628  -0.67076  -0.66575
 Alpha  occ. eigenvalues --   -0.64305  -0.64199  -0.63677  -0.62171  -0.61478
 Alpha  occ. eigenvalues --   -0.60625  -0.59746  -0.59062  -0.58406  -0.58059
 Alpha  occ. eigenvalues --   -0.57467  -0.56929  -0.55824  -0.55021  -0.54204
 Alpha  occ. eigenvalues --   -0.53422  -0.52830  -0.50424  -0.49416  -0.48744
 Alpha  occ. eigenvalues --   -0.47683  -0.47135  -0.45348  -0.44709  -0.41048
 Alpha  occ. eigenvalues --   -0.39781
 Alpha virt. eigenvalues --   -0.20194  -0.11599  -0.10200  -0.09681  -0.09462
 Alpha virt. eigenvalues --   -0.08330  -0.07430  -0.07310  -0.06773  -0.06639
 Alpha virt. eigenvalues --   -0.06262  -0.05375  -0.05046  -0.04878  -0.04206

 Mulliken charges:
               1
     1  C   -0.529064
     2  C   -0.415515
     3  C    0.027684
     4  C   -0.514775
     5  C   -0.177951
     6  C   -0.478582
     7  O    0.061906
     8  O    0.046232
     9  O    0.245408
    10  O   -0.020542
    11  H    0.221711
    12  H    0.224183
    13  H    0.267176
    14  H    0.279641
    15  H    0.245762
    16  H    0.248290
    17  H    0.285439
    18  O    0.047122
    19  C   -0.306140
    20  H    0.191661
    21  H    0.178556
    22  H    0.156903
    23  C   -0.255164
    24  H    0.181401
    25  H    0.175197
    26  H    0.207946
    27  C   -0.248520
    28  H    0.184710
    29  H    0.177883
    30  H    0.203126
    31  C    0.138107
    32  O    0.270758
    33  C   -1.033748
    34  H    0.248198
    35  H    0.234928
    36  H    0.230072
 Sum of Mulliken charges =   1.00000

 Dipole moment (field-independent basis, Debye):
    X=              3.0791    Y=              0.7163    Z=              0.2106  Tot=              3.1683
 Quadrupole moment (field-independent basis, Debye-Ang):
   XX=            -71.9814   YY=            -69.3236   ZZ=            -92.5928
   XY=              2.7537   XZ=              2.1509   YZ=             -5.4361

  Exact polarizability: 147.818   4.147 148.179  -1.119  -0.004 124.619
 Approx polarizability: 184.605   7.333 191.597  -7.304   2.564 182.271

                      1                      2                      3
                      A                      A                      A
 Frequencies --     46.7412                61.3207                74.9309
 Red. masses --      3.8729                 2.7096                 2.8973
 Frc consts  --      0.0050                 0.0060                 0.0096
 IR Inten    --      1.3937                 1.2006                 2.9580

                      4                      5                      6
                      A                      A                      A
 Frequencies --     84.9610                88.8165                92.6844
 Red. masses --      1.1041                 3.0547                 2.8397
 Frc consts  --      0.0047                 0.0142                 0.0144
 IR Inten    --      1.2960                 5.3265                 1.1109

                      7                      8                      9
                      A                      A                      A
 Frequencies --     99.3697               124.7437               154.0626
 Red. masses --      2.6311                 2.4126                 1.9303
 Frc consts  --      0.0153                 0.0221                 0.0270
 IR Inten    --      0.8384                 3.6885                 0.3175

                     10                     11                     12
                      A                      A                      A
 Frequencies --    168.0867               173.4009               189.5787
 Red. masses --      1.4592                 1.3708                 2.4605
 Frc consts  --      0.0243                 0.0243                 0.0521
 IR Inten    --      0.7046                 0.0077                 1.5541

                     13                     14                     15
                      A                      A                      A
 Frequencies --    219.2321               233.5391               270.8619
 Red. masses --      2.3238                 2.6853                 5.6346
 Frc consts  --      0.0658                 0.0863                 0.2436
 IR Inten    --      2.2433                 1.4841                 4.3509

                     16                     17                     18
                      A                      A                      A
 Frequencies --    273.7167               308.7600               345.2801
 Red. masses --      4.2754                 4.0407                 4.6617
 Frc consts  --      0.1887                 0.2270                 0.3274
 IR Inten    --      1.7889                 3.0866                 3.9236

                     19                     20                     21
                      A                      A                      A
 Frequencies --    351.6784               362.7728               380.3545
 Red. masses --      3.8300                 5.2525                 3.8805
 Frc consts  --      0.2791                 0.4073                 0.3308
 IR Inten    --      1.7639                 3.1470                22.9543

                     22                     23                     24
                      A                      A                      A
 Frequencies --    420.1368               460.9686               494.9698
 Red. masses --      4.5315                 3.1646                 3.4112
 Frc consts  --      0.4713                 0.3962                 0.4924
 IR Inten    --      8.7472                 3.1303                 4.2240

                     25                     26                     27
                      A                      A                      A
 Frequencies --    497.2086               542.1007               616.6429
 Red. masses --      4.8442                 4.0347                 3.6878
 Frc consts  --      0.7056                 0.6986                 0.8262
 IR Inten    --      9.2500                 3.7909                 4.7095

                     28                     29                     30
                      A                      A                      A
 Frequencies --    654.2919               691.8832               725.8539
 Red. masses --      4.9262                 4.1425                 6.1549
 Frc consts  --      1.2425                 1.1684                 1.9106
 IR Inten    --     27.3257                 4.0760               149.9799

                     31                     32                     33
                      A                      A                      A
 Frequencies --    773.8198               816.4401               888.6195
 Red. masses --      4.9295                 6.2746                 2.7581
 Frc consts  --      1.7391                 2.4643                 1.2832
 IR Inten    --      6.9911                14.2057                15.7827

                     34                     35                     36
                      A                      A                      A
 Frequencies --    903.6579               942.7616               969.2268
 Red. masses --      3.2799                 4.5480                 3.8672
 Frc consts  --      1.5780                 2.3816                 2.1404
 IR Inten    --     10.0972                38.0394                28.6303

                     37                     38                     39
                      A                      A                      A
 Frequencies --    979.4101              1007.6033              1020.1558
 Red. masses --      2.7278                 4.1477                 2.6876
 Frc consts  --      1.5417                 2.4811                 1.6480
 IR Inten    --      5.9043                39.1954                 7.3991

                     40                     41                     42
                      A                      A                      A
 Frequencies --   1040.1117              1051.4930              1052.4373
 Red. masses --      3.7971                 1.6987                 1.9387
 Frc consts  --      2.4202                 1.1065                 1.2652
 IR Inten    --     36.0761                11.8888                40.2304

                     43                     44                     45
                      A                      A                      A
 Frequencies --   1070.3018              1094.6254              1134.9315
 Red. masses --      2.5116                 2.0919                 1.8655
 Frc consts  --      1.6952                 1.4768                 1.4157
 IR Inten    --     20.0763                 4.3574                16.3983

                     46                     47                     48
                      A                      A                      A
 Frequencies --   1137.6179              1163.6488              1166.0838
 Red. masses --      2.6986                 2.3169                 2.0842
 Frc consts  --      2.0577                 1.8484                 1.6698
 IR Inten    --     39.8416               148.7353                28.4224

                     49                     50                     51
                      A                      A                      A
 Frequencies --   1172.4922              1177.3619              1178.7951
 Red. masses --      1.5797                 1.3317                 1.3887
 Frc consts  --      1.2795                 1.0876                 1.1370
 IR Inten    --     45.5101                14.6521                20.5979

                     52                     53                     54
                      A                      A                      A
 Frequencies --   1187.3125              1221.6521              1227.3729
 Red. masses --      1.9941                 2.4458                 2.2148
 Frc consts  --      1.6563                 2.1506                 1.9658
 IR Inten    --    106.2663                50.1021                48.8266

                     55                     56                     57
                      A                      A                      A
 Frequencies --   1230.0275              1234.2939              1277.5036
 Red. masses --      2.1997                 2.1716                 1.5444
 Frc consts  --      1.9608                 1.9492                 1.4851
 IR Inten    --    115.7667                31.9180                14.3384

                     58                     59                     60
                      A                      A                      A
 Frequencies --   1300.0666              1314.4071              1316.3235
 Red. masses --      1.2890                 1.5930                 1.3663
 Frc consts  --      1.2836                 1.6215                 1.3948
 IR Inten    --     52.5235                 8.7601                 4.8053

                     61                     62                     63
                      A                      A                      A
 Frequencies --   1324.6407              1345.8285              1355.0683
 Red. masses --      1.1994                 1.3492                 1.2791
 Frc consts  --      1.2400                 1.4398                 1.3838
 IR Inten    --      1.4311                19.1687                49.4944

                     64                     65                     66
                      A                      A                      A
 Frequencies --   1379.0024              1391.7930              1397.6947
 Red. masses --      1.2713                 1.3786                 1.5273
 Frc consts  --      1.4243                 1.5734                 1.7579
 IR Inten    --      2.2916                 7.8026                 8.9707

                     67                     68                     69
                      A                      A                      A
 Frequencies --   1405.5856              1424.4058              1436.6621
 Red. masses --      1.4160                 1.5750                 1.8920
 Frc consts  --      1.6482                 1.8827                 2.3008
 IR Inten    --     49.7406                 3.8854                14.4229

                     70                     71                     72
                      A                      A                      A
 Frequencies --   1438.4469              1451.6931              1472.7781
 Red. masses --      1.0974                 1.1928                 1.1282
 Frc consts  --      1.3378                 1.4810                 1.4418
 IR Inten    --     54.6006                62.6245                 3.7398

                     73                     74                     75
                      A                      A                      A
 Frequencies --   1475.1498              1479.1474              1488.9738
 Red. masses --      1.1277                 1.1424                 1.0448
 Frc consts  --      1.4459                 1.4727                 1.3648
 IR Inten    --      2.7253                 3.3431                25.9997

                     76                     77                     78
                      A                      A                      A
 Frequencies --   1490.4979              1491.0851              1499.6631
 Red. masses --      1.0430                 1.0481                 1.0642
 Frc consts  --      1.3652                 1.3730                 1.4101
 IR Inten    --     12.4176                 0.7001                24.7801

                     79                     80                     81
                      A                      A                      A
 Frequencies --   1500.2345              1500.8828              1502.8256
 Red. masses --      1.0622                 1.0604                 1.0943
 Frc consts  --      1.4085                 1.4074                 1.4562
 IR Inten    --     12.4754                 6.7644                 5.3029

                     82                     83                     84
                      A                      A                      A
 Frequencies --   1517.9064              1624.2357              3015.0130
 Red. masses --      3.9157                 5.3460                 1.0376
 Frc consts  --      5.3156                 8.3095                 5.5573
 IR Inten    --    312.0234               289.7366                37.5421

                     85                     86                     87
                      A                      A                      A
 Frequencies --   3019.6469              3024.9298              3030.9268
 Red. masses --      1.0363                 1.0396                 1.0800
 Frc consts  --      5.5676                 5.6048                 5.8455
 IR Inten    --     23.0858                32.6153                13.0118

                     88                     89                     90
                      A                      A                      A
 Frequencies --   3047.0160              3050.6029              3066.8765
 Red. masses --      1.0845                 1.0596                 1.0419
 Frc consts  --      5.9324                 5.8099                 5.7738
 IR Inten    --     12.5269                17.7290                19.7205

                     91                     92                     93
                      A                      A                      A
 Frequencies --   3078.1937              3086.1815              3090.1750
 Red. masses --      1.0862                 1.1029                 1.1057
 Frc consts  --      6.0638                 6.1893                 6.2208
 IR Inten    --      5.0264                36.0185                24.3892

                     94                     95                     96
                      A                      A                      A
 Frequencies --   3096.4086              3110.3813              3151.0096
 Red. masses --      1.1061                 1.1057                 1.0921
 Frc consts  --      6.2481                 6.3024                 6.3887
 IR Inten    --     24.8329                15.8500                 3.7878

                     97                     98                     99
                      A                      A                      A
 Frequencies --   3165.8306              3168.4057              3174.7594
 Red. masses --      1.1001                 1.0895                 1.1008
 Frc consts  --      6.4962                 6.4442                 6.5368
 IR Inten    --      8.1126                 2.5165                 7.0473

                    100                    101                    102
                      A                      A                      A
 Frequencies --   3175.8607              3187.5641              3206.4587
 Red. masses --      1.1003                 1.0924                 1.1068
 Frc consts  --      6.5384                 6.5398                 6.7048
 IR Inten    --      3.5492                 1.5447                 2.4886

 - Thermochemistry -
 -------------------
 Temperature   298.150 Kelvin.  Pressure   1.00000 Atm.
 Atom     1 has atomic number  6 and mass  12.00000

 Molecular mass:   247.11816 amu.
 Principal axes and moments of inertia in atomic units:
                           1         2         3
     Eigenvalues --  3211.734494363.337285510.82889
           X            0.99995   0.00199   0.00959
           Y           -0.00182   0.99984  -0.01775
           Z           -0.00962   0.01773   0.99980
 This molecule is an asymmetric top.
 Rotational symmetry number  1.
 Warning -- assumption of classical behavior for rotation
           may cause significant error
 Rotational temperatures (Kelvin)      0.02697     0.01985     0.01572
 Rotational constants (GHZ):           0.56192     0.41361     0.32749
 Zero-point vibrational energy     805086.5 (Joules/Mol)
                                  192.42028 (Kcal/Mol)
 Warning -- explicit consideration of  27 degrees of freedom as
           vibrations may cause significant error
 Vibrational temperatures:     67.25    88.23   107.81   122.24   127.79
          (Kelvin)            133.35   142.97   179.48   221.66   241.84
                              249.48   272.76   315.43   336.01   389.71
                              393.82   444.24   496.78   505.99   521.95
                              547.24   604.48   663.23   712.15   715.37
                              779.96   887.21   941.38   995.46  1044.34
                             1113.35  1174.67  1278.52  1300.16  1356.42
                             1394.50  1409.15  1449.71  1467.77  1496.49
                             1512.86  1514.22  1539.92  1574.92  1632.91
                             1636.78  1674.23  1677.73  1686.95  1693.96
                             1696.02  1708.28  1757.68  1765.91  1769.73
                             1775.87  1838.04  1870.50  1891.14  1893.89
                             1905.86  1936.34  1949.64  1984.07  2002.48
                             2010.97  2022.32  2049.40  2067.03  2069.60
                             2088.66  2119.00  2122.41  2128.16  2142.30
                             2144.49  2145.34  2157.68  2158.50  2159.43
                             2162.23  2183.93  2336.91  4337.93  4344.59
                             4352.19  4360.82  4383.97  4389.13  4412.55
                             4428.83  4440.32  4446.07  4455.04  4475.14
                             4533.59  4554.92  4558.62  4567.76  4569.35
                             4586.19  4613.37

 Zero-point correction=                           0.306641 (Hartree/Particle)
 Thermal correction to Energy=                    0.324508
 Thermal correction to Enthalpy=                  0.325452
 Thermal correction to Gibbs Free Energy=         0.260783
 Sum of electronic and zero-point Energies=           -880.622958
 Sum of electronic and thermal Energies=              -880.605092
 Sum of electronic and thermal Enthalpies=            -880.604147
 Sum of electronic and thermal Free Energies=         -880.668817

                     E (Thermal)             CV                S
                      KCal/Mol        Cal/Mol-Kelvin    Cal/Mol-Kelvin
 Total                  203.632             65.186            136.108
 Electronic               0.000              0.000              0.000
 Translational            0.889              2.981             42.415
 Rotational               0.889              2.981             32.713
 Vibrational            201.854             59.225             60.981
 Vibration     1          0.595              1.979              4.951
 Vibration     2          0.597              1.973              4.414
 Vibration     3          0.599              1.966              4.019
 Vibration     4          0.601              1.960              3.773
 Vibration     5          0.602              1.957              3.686
 Vibration     6          0.602              1.954              3.603
 Vibration     7          0.604              1.950              3.467
 Vibration     8          0.610              1.928              3.026
 Vibration     9          0.620              1.898              2.621
 Vibration    10          0.625              1.882              2.457
 Vibration    11          0.627              1.875              2.398
 Vibration    12          0.633              1.854              2.232
 Vibration    13          0.647              1.812              1.965
 Vibration    14          0.654              1.790              1.852
 Vibration    15          0.675              1.727              1.591
 Vibration    16          0.676              1.722              1.573
 Vibration    17          0.698              1.657              1.369
 Vibration    18          0.724              1.585              1.188
 Vibration    19          0.728              1.572              1.159
 Vibration    20          0.737              1.549              1.110
 Vibration    21          0.750              1.512              1.038
 Vibration    22          0.783              1.426              0.892
 Vibration    23          0.819              1.337              0.763
 Vibration    24          0.851              1.261              0.671
 Vibration    25          0.853              1.256              0.665
 Vibration    26          0.897              1.157              0.561
 Vibration    27          0.976              0.997              0.422

 Normal termination of Gaussian 09 at Tue Oct 24 14:50:49 2017.
