 Gaussian 09, Revision D.01,
 Gaussian 09:  EM64L-G09RevD.01 24-Apr-2013

 -------------------------------------------------------------------
 #P PBE1PBE/6-311+G(d,p) opt optcyc=999 freq EmpiricalDispersion=GD3
 -------------------------------------------------------------------

 -------
 disacch
 -------
 Symbolic Z-matrix:
 Charge =  1 Multiplicity = 1

 SCF Done:  E(RPBE1PBE) =  -880.928082778     A.U. after   17 cycles
 SCF Done:  E(RPBE1PBE) =  -880.932309763     A.U. after   18 cycles
 SCF Done:  E(RPBE1PBE) =  -880.932888326     A.U. after   18 cycles
 SCF Done:  E(RPBE1PBE) =  -880.933188345     A.U. after   13 cycles
 SCF Done:  E(RPBE1PBE) =  -880.933304451     A.U. after   17 cycles
 SCF Done:  E(RPBE1PBE) =  -880.933368211     A.U. after   12 cycles
 SCF Done:  E(RPBE1PBE) =  -880.933375761     A.U. after   17 cycles
 SCF Done:  E(RPBE1PBE) =  -880.933378281     A.U. after   15 cycles
 SCF Done:  E(RPBE1PBE) =  -880.933379210     A.U. after   14 cycles
 SCF Done:  E(RPBE1PBE) =  -880.933379457     A.U. after   13 cycles
 SCF Done:  E(RPBE1PBE) =  -880.933379642     A.U. after   13 cycles
 SCF Done:  E(RPBE1PBE) =  -880.933379816     A.U. after   13 cycles
 SCF Done:  E(RPBE1PBE) =  -880.933380007     A.U. after   14 cycles
 SCF Done:  E(RPBE1PBE) =  -880.933380321     A.U. after   14 cycles
 SCF Done:  E(RPBE1PBE) =  -880.933380609     A.U. after   14 cycles
 SCF Done:  E(RPBE1PBE) =  -880.933380757     A.U. after   14 cycles
 SCF Done:  E(RPBE1PBE) =  -880.933380784     A.U. after   11 cycles
 Optimization completed.
    -- Stationary point found.
 Normal termination of Gaussian 09 at Sun Jan  8 02:29:02 2017.

 ----------------------------------------------------------------------
 #P Geom=AllCheck Guess=TCheck SCRF=Check GenChk RPBE1PBE/6-311+G(d,p)
 Freq
 ----------------------------------------------------------------------

 Structure from the checkpoint file:  "Ac-4_cGalMe.chk"
 -------
 disacch
 -------
 Charge =  1 Multiplicity = 1

                         Standard orientation:
 ---------------------------------------------------------------------
 Center     Atomic      Atomic             Coordinates (Angstroms)
 Number     Number       Type             X           Y           Z
 ---------------------------------------------------------------------
      1          6           0        2.029703   -1.470303   -0.984117
      2          6           0        0.575333   -1.143027   -0.744349
      3          6           0        0.160745    0.285771   -1.039253
      4          6           0       -1.364700    0.465653   -0.881896
      5          6           0       -1.880798   -0.425418    0.255002
      6          6           0       -0.721671   -0.760809    1.193096
      7          8           0        0.285392   -1.455955    0.628766
      8          8           0       -1.717470    1.782504   -0.589695
      9          8           0        0.834143    1.236342   -0.155552
     10          8           0        2.837086   -0.590835   -0.258563
     11          1           0        2.230778   -1.405065   -2.065815
     12          1           0        2.194448   -2.513731   -0.676629
     13          1           0       -0.040902   -1.788211   -1.384076
     14          1           0        0.509810    0.587488   -2.025977
     15          1           0       -1.835269    0.108113   -1.808580
     16          1           0       -2.652268    0.127410    0.807015
     17          1           0       -1.013719   -1.253376    2.117716
     18          8           0       -2.373123   -1.594849   -0.324814
     19          6           0        4.210010   -0.925041   -0.335593
     20          1           0        4.397036   -1.923027    0.080403
     21          1           0        4.568437   -0.894502   -1.372461
     22          1           0        4.754423   -0.185471    0.250892
     23          6           0       -3.141696   -2.421060    0.539703
     24          1           0       -2.518485   -2.912835    1.295272
     25          1           0       -3.932119   -1.841515    1.031065
     26          1           0       -3.595863   -3.185279   -0.089133
     27          6           0       -1.563166    2.687332   -1.673937
     28          1           0       -0.506332    2.845672   -1.921840
     29          1           0       -2.098085    2.327233   -2.560314
     30          1           0       -1.997417    3.633243   -1.353666
     31          6           0        0.544692    1.348917    1.081394
     32          8           0       -0.202554    0.560486    1.745374
     33          6           0        1.178053    2.462129    1.810679
     34          1           0        1.353552    3.304183    1.143193
     35          1           0        2.145986    2.098709    2.176126
     36          1           0        0.569152    2.744556    2.668299
 ---------------------------------------------------------------------

 SCF Done:  E(RPBE1PBE) =  -880.933380784     A.U. after    3 cycles

 The electronic state is 1-A.
 Alpha  occ. eigenvalues --  -19.45193 -19.44454 -19.39243 -19.36273 -19.35647
 Alpha  occ. eigenvalues --  -19.33554 -10.56959 -10.50288 -10.46248 -10.44194
 Alpha  occ. eigenvalues --  -10.43912 -10.43458 -10.40483 -10.39221 -10.38569
 Alpha  occ. eigenvalues --  -10.38557 -10.37063  -1.36968  -1.29169  -1.26346
 Alpha  occ. eigenvalues --   -1.23012  -1.21638  -1.19933  -1.01623  -0.98616
 Alpha  occ. eigenvalues --   -0.95315  -0.89846  -0.88613  -0.85920  -0.83104
 Alpha  occ. eigenvalues --   -0.81236  -0.79113  -0.77692  -0.77020  -0.72935
 Alpha  occ. eigenvalues --   -0.72059  -0.67952  -0.67321  -0.66597  -0.66096
 Alpha  occ. eigenvalues --   -0.64294  -0.63908  -0.63041  -0.62134  -0.61110
 Alpha  occ. eigenvalues --   -0.60750  -0.59990  -0.58550  -0.58150  -0.57545
 Alpha  occ. eigenvalues --   -0.57292  -0.56408  -0.55817  -0.54714  -0.53986
 Alpha  occ. eigenvalues --   -0.52874  -0.52419  -0.51479  -0.49100  -0.48270
 Alpha  occ. eigenvalues --   -0.47451  -0.46282  -0.45925  -0.42756  -0.41815
 Alpha  occ. eigenvalues --   -0.39987
 Alpha virt. eigenvalues --   -0.19516  -0.11517  -0.10061  -0.09470  -0.08733
 Alpha virt. eigenvalues --   -0.08076  -0.07804  -0.06943  -0.06232  -0.06206
 Alpha virt. eigenvalues --   -0.05985  -0.05748  -0.04945  -0.04807  -0.04188

 Mulliken charges:
               1
     1  C   -0.780546
     2  C   -0.299027
     3  C    0.094341
     4  C   -0.297461
     5  C   -0.218929
     6  C   -0.217465
     7  O    0.115554
     8  O    0.051057
     9  O    0.286481
    10  O   -0.124557
    11  H    0.192539
    12  H    0.212454
    13  H    0.281393
    14  H    0.246021
    15  H    0.253520
    16  H    0.255720
    17  H    0.274355
    18  O    0.033278
    19  C   -0.261771
    20  H    0.168719
    21  H    0.165341
    22  H    0.179108
    23  C   -0.284607
    24  H    0.172488
    25  H    0.175912
    26  H    0.200640
    27  C   -0.323199
    28  H    0.174105
    29  H    0.186045
    30  H    0.206592
    31  C    0.057439
    32  O    0.300703
    33  C   -1.191524
    34  H    0.232179
    35  H    0.248641
    36  H    0.234460
 Sum of Mulliken charges =   1.00000

 Dipole moment (field-independent basis, Debye):
    X=              0.4452    Y=              1.4672    Z=              0.0008  Tot=              1.5333
 Quadrupole moment (field-independent basis, Debye-Ang):
   XX=            -73.4052   YY=            -76.5548   ZZ=            -82.6520
   XY=              3.8808   XZ=             -1.4269   YZ=              1.6211

  Exact polarizability: 148.003   6.825 144.998   0.324   2.893 129.395
 Approx polarizability: 180.370   8.420 189.614  -3.826   5.411 190.966

                      1                      2                      3
                      A                      A                      A
 Frequencies --     44.6823                49.6417                72.6181
 Red. masses --      3.5245                 3.3415                 2.8653
 Frc consts  --      0.0041                 0.0049                 0.0089
 IR Inten    --      1.1217                 0.3839                 5.7271

                      4                      5                      6
                      A                      A                      A
 Frequencies --     77.1518                80.3145                97.1749
 Red. masses --      1.0412                 3.5259                 2.7330
 Frc consts  --      0.0037                 0.0134                 0.0152
 IR Inten    --      0.5628                 1.1139                 2.0486

                      7                      8                      9
                      A                      A                      A
 Frequencies --    103.8594               124.3423               161.2097
 Red. masses --      2.1942                 2.1926                 3.2836
 Frc consts  --      0.0139                 0.0200                 0.0503
 IR Inten    --      6.1927                 0.9470                 0.5958

                     10                     11                     12
                      A                      A                      A
 Frequencies --    184.6718               195.5891               204.9031
 Red. masses --      1.5168                 1.6458                 2.0442
 Frc consts  --      0.0305                 0.0371                 0.0506
 IR Inten    --      0.5730                 3.0347                 0.4014

                     13                     14                     15
                      A                      A                      A
 Frequencies --    224.1976               242.1669               272.0475
 Red. masses --      1.7658                 2.5361                 4.2723
 Frc consts  --      0.0523                 0.0876                 0.1863
 IR Inten    --      2.4953                 2.0805                 9.8995

                     16                     17                     18
                      A                      A                      A
 Frequencies --    283.7003               311.5190               325.8730
 Red. masses --      3.6327                 4.3615                 3.8745
 Frc consts  --      0.1723                 0.2494                 0.2424
 IR Inten    --      6.8943                 1.4005                 1.4473

                     19                     20                     21
                      A                      A                      A
 Frequencies --    340.6404               352.2089               354.9977
 Red. masses --      4.0128                 3.2263                 4.8567
 Frc consts  --      0.2743                 0.2358                 0.3606
 IR Inten    --      3.1363                 1.1458                 3.6072

                     22                     23                     24
                      A                      A                      A
 Frequencies --    407.1748               424.4534               483.9636
 Red. masses --      5.3062                 5.2634                 4.6249
 Frc consts  --      0.5183                 0.5587                 0.6382
 IR Inten    --      3.7618                 4.0111                 2.2427

                     25                     26                     27
                      A                      A                      A
 Frequencies --    556.3232               607.6864               631.2466
 Red. masses --      3.5880                 3.5028                 4.5361
 Frc consts  --      0.6543                 0.7621                 1.0649
 IR Inten    --      6.0979                 4.3325                 0.7552

                     28                     29                     30
                      A                      A                      A
 Frequencies --    670.9441               745.1013               752.2246
 Red. masses --      5.5313                 5.7385                 5.9613
 Frc consts  --      1.4671                 1.8771                 1.9874
 IR Inten    --     37.7690               116.1584                23.6356

                     31                     32                     33
                      A                      A                      A
 Frequencies --    785.9739               826.0570               858.0971
 Red. masses --      4.9806                 6.8508                 3.1691
 Frc consts  --      1.8128                 2.7543                 1.3749
 IR Inten    --     23.9732                23.9750                 4.4698

                     34                     35                     36
                      A                      A                      A
 Frequencies --    897.6686               929.8682               962.6029
 Red. masses --      3.0797                 3.2270                 3.3184
 Frc consts  --      1.4622                 1.6440                 1.8117
 IR Inten    --      1.9226                13.8720                11.5758

                     37                     38                     39
                      A                      A                      A
 Frequencies --    986.0752               991.1523              1005.7128
 Red. masses --      2.5004                 4.5589                 2.5074
 Frc consts  --      1.4324                 2.6387                 1.4942
 IR Inten    --     12.5328                58.9985                24.2273

                     40                     41                     42
                      A                      A                      A
 Frequencies --   1038.1422              1048.7270              1049.8221
 Red. masses --      2.3448                 2.0917                 2.0288
 Frc consts  --      1.4889                 1.3554                 1.3174
 IR Inten    --     18.2391                30.7519                 1.8160

                     43                     44                     45
                      A                      A                      A
 Frequencies --   1072.9625              1090.2061              1119.7612
 Red. masses --      2.7808                 3.0532                 1.7775
 Frc consts  --      1.8862                 2.1381                 1.3132
 IR Inten    --     29.5181                47.8798                47.1660

                     46                     47                     48
                      A                      A                      A
 Frequencies --   1152.8416              1159.4076              1174.7091
 Red. masses --      2.2698                 2.3207                 1.3553
 Frc consts  --      1.7774                 1.8380                 1.1019
 IR Inten    --      8.3931                41.1155                24.2538

                     49                     50                     51
                      A                      A                      A
 Frequencies --   1177.2063              1178.6946              1181.4133
 Red. masses --      1.6092                 1.4105                 1.7322
 Frc consts  --      1.3139                 1.1546                 1.4245
 IR Inten    --     68.2012                33.1438                74.8451

                     52                     53                     54
                      A                      A                      A
 Frequencies --   1184.6215              1222.2660              1231.3485
 Red. masses --      1.8429                 2.1408                 2.7666
 Frc consts  --      1.5237                 1.8844                 2.4715
 IR Inten    --     46.7154               120.8538                44.2385

                     55                     56                     57
                      A                      A                      A
 Frequencies --   1236.2776              1248.0556              1268.2896
 Red. masses --      2.4687                 2.1148                 1.4767
 Frc consts  --      2.2231                 1.9409                 1.3995
 IR Inten    --     89.0362                14.5323                24.4631

                     58                     59                     60
                      A                      A                      A
 Frequencies --   1291.3188              1317.0536              1321.6519
 Red. masses --      1.2413                 1.4050                 1.3020
 Frc consts  --      1.2195                 1.4360                 1.3400
 IR Inten    --      3.4295                32.0996                 3.9927

                     61                     62                     63
                      A                      A                      A
 Frequencies --   1330.5823              1354.5275              1362.4443
 Red. masses --      1.4341                 1.2871                 1.3050
 Frc consts  --      1.4959                 1.3913                 1.4273
 IR Inten    --     14.1195                23.6189                20.2689

                     64                     65                     66
                      A                      A                      A
 Frequencies --   1379.0486              1385.0962              1405.0650
 Red. masses --      1.5345                 1.2867                 1.3535
 Frc consts  --      1.7194                 1.4544                 1.5743
 IR Inten    --     39.6602                 8.3108                13.5099

                     67                     68                     69
                      A                      A                      A
 Frequencies --   1417.6925              1427.3413              1436.3841
 Red. masses --      1.6582                 1.5940                 1.5359
 Frc consts  --      1.9636                 1.9134                 1.8670
 IR Inten    --     12.3735                 4.6295                23.7871

                     70                     71                     72
                      A                      A                      A
 Frequencies --   1439.5700              1452.6135              1474.2716
 Red. masses --      1.1508                 1.2290                 1.1196
 Frc consts  --      1.4051                 1.5280                 1.4338
 IR Inten    --     40.3568                68.3465                 4.4324

                     73                     74                     75
                      A                      A                      A
 Frequencies --   1476.4425              1477.1257              1486.1683
 Red. masses --      1.1353                 1.1589                 1.0424
 Frc consts  --      1.4581                 1.4899                 1.3566
 IR Inten    --      8.8447                 3.9976                12.9469

                     76                     77                     78
                      A                      A                      A
 Frequencies --   1492.3209              1493.0331              1494.8178
 Red. masses --      1.0697                 1.0745                 1.0795
 Frc consts  --      1.4036                 1.4113                 1.4211
 IR Inten    --      6.0227                13.5154                18.2160

                     79                     80                     81
                      A                      A                      A
 Frequencies --   1500.0838              1502.1220              1510.7284
 Red. masses --      1.0487                 1.0468                 1.0928
 Frc consts  --      1.3903                 1.3916                 1.4695
 IR Inten    --      5.7660                19.9100                 6.8237

                     82                     83                     84
                      A                      A                      A
 Frequencies --   1519.6090              1628.8825              2994.4417
 Red. masses --      3.7660                 5.4103                 1.0593
 Frc consts  --      5.1238                 8.4577                 5.5963
 IR Inten    --    275.7480               298.9035                27.8167

                     85                     86                     87
                      A                      A                      A
 Frequencies --   3017.4347              3024.2848              3028.3642
 Red. masses --      1.0357                 1.0356                 1.0348
 Frc consts  --      5.5559                 5.5809                 5.5916
 IR Inten    --     50.4837                29.6571                27.2899

                     88                     89                     90
                      A                      A                      A
 Frequencies --   3040.0426              3040.5492              3054.7839
 Red. masses --      1.1026                 1.0848                 1.0856
 Frc consts  --      6.0037                 5.9090                 5.9689
 IR Inten    --     21.5494                 4.4521                 7.3081

                     91                     92                     93
                      A                      A                      A
 Frequencies --   3066.4440              3067.5945              3083.7471
 Red. masses --      1.0440                 1.0838                 1.1063
 Frc consts  --      5.7837                 6.0091                 6.1985
 IR Inten    --     17.9669                 5.0967                26.2498

                     94                     95                     96
                      A                      A                      A
 Frequencies --   3095.7410              3100.9177              3155.7472
 Red. masses --      1.1060                 1.1069                 1.0890
 Frc consts  --      6.2448                 6.2709                 6.3896
 IR Inten    --     24.6740                25.4095                 1.2669

                     97                     98                     99
                      A                      A                      A
 Frequencies --   3155.8098              3162.8821              3173.1452
 Red. masses --      1.0897                 1.1002                 1.1008
 Frc consts  --      6.3939                 6.4846                 6.5301
 IR Inten    --      2.8502                11.2007                 4.9649

                    100                    101                    102
                      A                      A                      A
 Frequencies --   3173.6704              3177.3085              3206.6905
 Red. masses --      1.0994                 1.0928                 1.1076
 Frc consts  --      6.5244                 6.4997                 6.7104
 IR Inten    --      5.8278                 2.2120                 1.6987

 - Thermochemistry -
 -------------------
 Temperature   298.150 Kelvin.  Pressure   1.00000 Atm.
 Atom     1 has atomic number  6 and mass  12.00000

 Molecular mass:   247.11816 amu.
 Principal axes and moments of inertia in atomic units:
                           1         2         3
     Eigenvalues --  2965.146754226.160145309.84787
           X            0.99997   0.00561  -0.00456
           Y           -0.00564   0.99996  -0.00624
           Z            0.00453   0.00626   0.99997
 This molecule is an asymmetric top.
 Rotational symmetry number  1.
 Warning -- assumption of classical behavior for rotation
           may cause significant error
 Rotational temperatures (Kelvin)      0.02921     0.02049     0.01631
 Rotational constants (GHZ):           0.60865     0.42704     0.33989
 Zero-point vibrational energy     805422.8 (Joules/Mol)
                                  192.50068 (Kcal/Mol)
 Warning -- explicit consideration of  26 degrees of freedom as
           vibrations may cause significant error
 Vibrational temperatures:     64.29    71.42   104.48   111.00   115.55
          (Kelvin)            139.81   149.43   178.90   231.94   265.70
                              281.41   294.81   322.57   348.42   391.42
                              408.18   448.21   468.86   490.10   506.75
                              510.76   585.83   610.69   696.31   800.42
                              874.32   908.22   965.34  1072.03  1082.28
                             1130.84  1188.51  1234.61  1291.54  1337.87
                             1384.97  1418.74  1426.05  1446.99  1493.65
                             1508.88  1510.46  1543.75  1568.56  1611.08
                             1658.68  1668.13  1690.14  1693.74  1695.88
                             1699.79  1704.40  1758.57  1771.63  1778.73
                             1795.67  1824.78  1857.92  1894.94  1901.56
                             1914.41  1948.86  1960.25  1984.14  1992.84
                             2021.57  2039.74  2053.62  2066.63  2071.22
                             2089.98  2121.15  2124.27  2125.25  2138.26
                             2147.11  2148.14  2150.71  2158.28  2161.22
                             2173.60  2186.38  2343.60  4308.33  4341.41
                             4351.27  4357.14  4373.94  4374.67  4395.15
                             4411.92  4413.58  4436.82  4454.08  4461.52
                             4540.41  4540.50  4550.68  4565.44  4566.20
                             4571.43  4613.71

 Zero-point correction=                           0.306769 (Hartree/Particle)
 Thermal correction to Energy=                    0.324555
 Thermal correction to Enthalpy=                  0.325499
 Thermal correction to Gibbs Free Energy=         0.260865
 Sum of electronic and zero-point Energies=           -880.626611
 Sum of electronic and thermal Energies=              -880.608826
 Sum of electronic and thermal Enthalpies=            -880.607882
 Sum of electronic and thermal Free Energies=         -880.672516

                     E (Thermal)             CV                S
                      KCal/Mol        Cal/Mol-Kelvin    Cal/Mol-Kelvin
 Total                  203.661             64.898            136.034
 Electronic               0.000              0.000              0.000
 Translational            0.889              2.981             42.415
 Rotational               0.889              2.981             32.565
 Vibrational            201.884             58.936             61.055
 Vibration     1          0.595              1.980              5.040
 Vibration     2          0.595              1.978              4.832
 Vibration     3          0.599              1.967              4.081
 Vibration     4          0.599              1.964              3.962
 Vibration     5          0.600              1.963              3.883
 Vibration     6          0.603              1.951              3.510
 Vibration     7          0.605              1.946              3.381
 Vibration     8          0.610              1.929              3.032
 Vibration     9          0.622              1.890              2.536
 Vibration    10          0.631              1.861              2.281
 Vibration    11          0.636              1.846              2.174
 Vibration    12          0.640              1.833              2.089
 Vibration    13          0.649              1.804              1.925
 Vibration    14          0.658              1.776              1.787
 Vibration    15          0.675              1.725              1.583
 Vibration    16          0.682              1.704              1.511
 Vibration    17          0.700              1.652              1.354
 Vibration    18          0.710              1.624              1.280
 Vibration    19          0.720              1.594              1.209
 Vibration    20          0.729              1.571              1.156
 Vibration    21          0.731              1.565              1.144
 Vibration    22          0.772              1.455              0.937
 Vibration    23          0.786              1.417              0.877
 Vibration    24          0.840              1.286              0.699
 Vibration    25          0.912              1.126              0.531
 Vibration    26          0.966              1.016              0.437

 Optimization completed.
    -- Stationary point found.
 Normal termination of Gaussian 09 at Sun Jan  8 02:54:51 2017.
