 Gaussian 09, Revision D.01,
 Gaussian 09:  EM64L-G09RevD.01 24-Apr-2013

 -------------------------------------------------------------------
 #P PBE1PBE/6-311+G(d,p) opt optcyc=999 freq EmpiricalDispersion=GD3
 -------------------------------------------------------------------

 -------
 disacch
 -------
 Symbolic Z-matrix:
 Charge =  1 Multiplicity = 1

 SCF Done:  E(RPBE1PBE) =  -880.927683989     A.U. after   14 cycles
 SCF Done:  E(RPBE1PBE) =  -880.931856087     A.U. after   13 cycles
 SCF Done:  E(RPBE1PBE) =  -880.932455893     A.U. after   14 cycles
 SCF Done:  E(RPBE1PBE) =  -880.932739741     A.U. after   11 cycles
 SCF Done:  E(RPBE1PBE) =  -880.932828810     A.U. after   12 cycles
 SCF Done:  E(RPBE1PBE) =  -880.932873398     A.U. after   15 cycles
 SCF Done:  E(RPBE1PBE) =  -880.932878717     A.U. after   12 cycles
 SCF Done:  E(RPBE1PBE) =  -880.932879969     A.U. after   15 cycles
 SCF Done:  E(RPBE1PBE) =  -880.932880616     A.U. after   13 cycles
 SCF Done:  E(RPBE1PBE) =  -880.932880819     A.U. after   13 cycles
 SCF Done:  E(RPBE1PBE) =  -880.932880964     A.U. after   13 cycles
 SCF Done:  E(RPBE1PBE) =  -880.932881064     A.U. after   14 cycles
 SCF Done:  E(RPBE1PBE) =  -880.932881155     A.U. after   14 cycles
 SCF Done:  E(RPBE1PBE) =  -880.932881198     A.U. after    7 cycles
 SCF Done:  E(RPBE1PBE) =  -880.932881218     A.U. after   14 cycles
 SCF Done:  E(RPBE1PBE) =  -880.932881180     A.U. after   13 cycles
 Optimization completed.
    -- Stationary point found.
 Normal termination of Gaussian 09 at Mon Jan  9 12:55:25 2017.

 ----------------------------------------------------------------------
 #P Geom=AllCheck Guess=TCheck SCRF=Check GenChk RPBE1PBE/6-311+G(d,p)
 Freq
 ----------------------------------------------------------------------

 Structure from the checkpoint file:  "Ac-4_cGalMe.chk"
 -------
 disacch
 -------
 Charge =  1 Multiplicity = 1

                         Standard orientation:
 ---------------------------------------------------------------------
 Center     Atomic      Atomic             Coordinates (Angstroms)
 Number     Number       Type             X           Y           Z
 ---------------------------------------------------------------------
      1          6           0       -2.601690   -0.570958   -0.385311
      2          6           0       -1.130688   -0.803692   -0.104831
      3          6           0       -0.499577    0.264477    0.756122
      4          6           0        0.949610   -0.078711    1.092798
      5          6           0        1.607665   -0.827484   -0.085553
      6          6           0        0.841511   -0.487478   -1.363311
      7          8           0       -0.456739   -0.850233   -1.374964
      8          8           0        1.607308    1.108892    1.419438
      9          8           0       -0.555233    1.558236    0.049111
     10          8           0       -3.226069   -0.522221    0.861659
     11          1           0       -2.976907   -1.395912   -1.007318
     12          1           0       -2.739275    0.365265   -0.949033
     13          1           0       -0.998925   -1.763165    0.406874
     14          1           0       -1.099529    0.451114    1.644493
     15          1           0        0.922990   -0.783694    1.935485
     16          1           0        2.647220   -0.490119   -0.202955
     17          1           0        1.309880   -0.822121   -2.286174
     18          8           0        1.524827   -2.191282    0.185637
     19          6           0       -4.635505   -0.419848    0.777213
     20          1           0       -5.014087   -0.391171    1.798159
     21          1           0       -4.934481    0.497608    0.254232
     22          1           0       -5.062428   -1.286560    0.257676
     23          6           0        2.276757   -3.030220   -0.681135
     24          1           0        1.833228   -3.084963   -1.681828
     25          1           0        3.315194   -2.684806   -0.754659
     26          1           0        2.260783   -4.024536   -0.237610
     27          6           0        2.767543    0.931198    2.221752
     28          1           0        2.505606    0.470054    3.180361
     29          1           0        3.520582    0.314586    1.717105
     30          1           0        3.179832    1.923577    2.397457
     31          6           0        0.258012    1.859080   -0.889037
     32          8           0        0.973661    1.028482   -1.534000
     33          6           0        0.363312    3.285409   -1.243287
     34          1           0        1.065253    3.738065   -0.533035
     35          1           0       -0.602987    3.773451   -1.111814
     36          1           0        0.744316    3.407702   -2.254978
 ---------------------------------------------------------------------

 SCF Done:  E(RPBE1PBE) =  -880.932881180     A.U. after    3 cycles

 The electronic state is 1-A.
 Alpha  occ. eigenvalues --  -19.45302 -19.44974 -19.39909 -19.36309 -19.36005
 Alpha  occ. eigenvalues --  -19.33330 -10.57391 -10.50835 -10.45754 -10.43994
 Alpha  occ. eigenvalues --  -10.43838 -10.43724 -10.40088 -10.39136 -10.38921
 Alpha  occ. eigenvalues --  -10.38917 -10.36599  -1.37251  -1.29275  -1.26773
 Alpha  occ. eigenvalues --   -1.23113  -1.21918  -1.19796  -1.01752  -0.98688
 Alpha  occ. eigenvalues --   -0.95387  -0.90022  -0.88420  -0.86112  -0.82957
 Alpha  occ. eigenvalues --   -0.81336  -0.79314  -0.77621  -0.76298  -0.73374
 Alpha  occ. eigenvalues --   -0.72099  -0.68332  -0.67463  -0.66855  -0.66537
 Alpha  occ. eigenvalues --   -0.64119  -0.63966  -0.63369  -0.61956  -0.61381
 Alpha  occ. eigenvalues --   -0.60777  -0.59561  -0.58705  -0.58286  -0.57775
 Alpha  occ. eigenvalues --   -0.57372  -0.56909  -0.55817  -0.55014  -0.54028
 Alpha  occ. eigenvalues --   -0.52455  -0.52243  -0.51645  -0.49070  -0.48222
 Alpha  occ. eigenvalues --   -0.47878  -0.46591  -0.45969  -0.42919  -0.41796
 Alpha  occ. eigenvalues --   -0.39678
 Alpha virt. eigenvalues --   -0.20131  -0.11561  -0.10250  -0.09562  -0.08795
 Alpha virt. eigenvalues --   -0.08274  -0.07573  -0.06670  -0.06592  -0.06438
 Alpha virt. eigenvalues --   -0.05942  -0.05691  -0.05296  -0.04769  -0.04411

 Mulliken charges:
               1
     1  C   -0.348019
     2  C   -0.820065
     3  C    0.297479
     4  C   -0.707063
     5  C   -0.030723
     6  C   -0.405528
     7  O    0.101245
     8  O    0.040140
     9  O    0.253493
    10  O   -0.058212
    11  H    0.214803
    12  H    0.197665
    13  H    0.303639
    14  H    0.284630
    15  H    0.264491
    16  H    0.233896
    17  H    0.274521
    18  O    0.049302
    19  C   -0.273490
    20  H    0.186904
    21  H    0.161829
    22  H    0.168105
    23  C   -0.291954
    24  H    0.173809
    25  H    0.173631
    26  H    0.204958
    27  C   -0.270970
    28  H    0.182946
    29  H    0.167710
    30  H    0.197378
    31  C    0.113675
    32  O    0.261768
    33  C   -1.013673
    34  H    0.249678
    35  H    0.233329
    36  H    0.228670
 Sum of Mulliken charges =   1.00000

 Dipole moment (field-independent basis, Debye):
    X=              1.9300    Y=              2.0902    Z=             -1.4903  Tot=              3.2117
 Quadrupole moment (field-independent basis, Debye-Ang):
   XX=            -66.9008   YY=            -74.8084   ZZ=            -88.3236
   XY=             -1.6189   XZ=              0.8414   YZ=             -1.9944

  Exact polarizability: 149.843  -0.360 146.788  -2.491  -0.088 126.072
 Approx polarizability: 183.811   1.054 192.771  -9.884  -0.994 181.315

                      1                      2                      3
                      A                      A                      A
 Frequencies --     44.9062                59.1667                71.9988
 Red. masses --      3.8578                 3.0678                 2.6826
 Frc consts  --      0.0046                 0.0063                 0.0082
 IR Inten    --      0.2221                 0.2323                 3.9474

                      4                      5                      6
                      A                      A                      A
 Frequencies --     80.9964                86.2683                93.8483
 Red. masses --      1.1049                 2.4906                 2.5592
 Frc consts  --      0.0043                 0.0109                 0.0133
 IR Inten    --      0.8408                 4.2468                 5.1768

                      7                      8                      9
                      A                      A                      A
 Frequencies --     99.1749               119.3903               157.7088
 Red. masses --      2.5868                 2.1043                 2.3145
 Frc consts  --      0.0150                 0.0177                 0.0339
 IR Inten    --      0.8803                 2.4311                 0.5595

                     10                     11                     12
                      A                      A                      A
 Frequencies --    163.0160               174.3911               196.8602
 Red. masses --      1.4412                 2.6977                 1.7471
 Frc consts  --      0.0226                 0.0483                 0.0399
 IR Inten    --      1.3079                 1.7177                 0.9101

                     13                     14                     15
                      A                      A                      A
 Frequencies --    232.6278               241.4353               253.8395
 Red. masses --      1.5362                 3.4098                 4.4135
 Frc consts  --      0.0490                 0.1171                 0.1676
 IR Inten    --      3.2678                 6.2525                 4.4295

                     16                     17                     18
                      A                      A                      A
 Frequencies --    272.4417               306.0490               313.9092
 Red. masses --      3.5132                 3.6102                 5.2957
 Frc consts  --      0.1536                 0.1992                 0.3075
 IR Inten    --      3.9200                 6.9462                 1.0107

                     19                     20                     21
                      A                      A                      A
 Frequencies --    330.5882               355.9446               387.9509
 Red. masses --      4.2205                 4.8437                 5.6767
 Frc consts  --      0.2718                 0.3616                 0.5034
 IR Inten    --      4.2533                 0.4072                 5.7433

                     22                     23                     24
                      A                      A                      A
 Frequencies --    409.5277               448.9960               490.5623
 Red. masses --      4.6877                 4.9437                 3.9944
 Frc consts  --      0.4632                 0.5872                 0.5664
 IR Inten    --      1.9382                 1.3919                11.7425

                     25                     26                     27
                      A                      A                      A
 Frequencies --    505.8902               563.5889               622.3158
 Red. masses --      4.2428                 3.2735                 3.3940
 Frc consts  --      0.6398                 0.6126                 0.7744
 IR Inten    --      6.6258                 1.5198                 6.8939

                     28                     29                     30
                      A                      A                      A
 Frequencies --    656.0585               699.1763               736.3231
 Red. masses --      5.7350                 4.0748                 5.9973
 Frc consts  --      1.4544                 1.1736                 1.9158
 IR Inten    --     29.5275                10.1119               133.0319

                     31                     32                     33
                      A                      A                      A
 Frequencies --    770.6988               815.0460               891.3136
 Red. masses --      4.9593                 6.3772                 3.3348
 Frc consts  --      1.7355                 2.4960                 1.5609
 IR Inten    --     14.7132                20.7024                10.2483

                     34                     35                     36
                      A                      A                      A
 Frequencies --    894.2243               938.0098               977.1207
 Red. masses --      2.8569                 4.3406                 3.1201
 Frc consts  --      1.3460                 2.2502                 1.7552
 IR Inten    --      1.6667                29.1350                 7.7898

                     37                     38                     39
                      A                      A                      A
 Frequencies --    998.3787              1010.7106              1018.8348
 Red. masses --      4.6378                 2.5962                 3.5224
 Frc consts  --      2.7236                 1.5626                 2.1542
 IR Inten    --     36.7752                31.0540                49.1741

                     40                     41                     42
                      A                      A                      A
 Frequencies --   1044.8371              1050.3845              1052.6178
 Red. masses --      2.9187                 1.8916                 1.7162
 Frc consts  --      1.8773                 1.2296                 1.1203
 IR Inten    --     25.2418                25.6817                16.9352

                     43                     44                     45
                      A                      A                      A
 Frequencies --   1068.0966              1100.2952              1139.1110
 Red. masses --      2.5021                 2.0448                 2.4132
 Frc consts  --      1.6818                 1.4585                 1.8449
 IR Inten    --     17.8265                 9.1016                69.3987

                     46                     47                     48
                      A                      A                      A
 Frequencies --   1150.8839              1164.1322              1173.7584
 Red. masses --      1.8951                 2.2801                 1.6210
 Frc consts  --      1.4790                 1.8206                 1.3158
 IR Inten    --     24.7465                81.6054                47.0277

                     49                     50                     51
                      A                      A                      A
 Frequencies --   1176.2448              1179.2092              1184.2877
 Red. masses --      1.3136                 1.3736                 1.7278
 Frc consts  --      1.0708                 1.1253                 1.4278
 IR Inten    --      1.0235                20.0268                45.5426

                     52                     53                     54
                      A                      A                      A
 Frequencies --   1194.0850              1227.6288              1231.3493
 Red. masses --      2.5610                 2.2316                 3.0621
 Frc consts  --      2.1515                 1.9816                 2.7354
 IR Inten    --    132.9282               107.3201                90.6513

                     55                     56                     57
                      A                      A                      A
 Frequencies --   1235.6636              1240.7600              1248.8517
 Red. masses --      2.0966                 2.2712                 1.2335
 Frc consts  --      1.8861                 2.0601                 1.1335
 IR Inten    --     19.8723                49.7945                18.2630

                     58                     59                     60
                      A                      A                      A
 Frequencies --   1283.9653              1310.9294              1314.8908
 Red. masses --      1.5059                 1.5048                 1.2279
 Frc consts  --      1.4626                 1.5236                 1.2508
 IR Inten    --      2.7950                20.2933                16.5934

                     61                     62                     63
                      A                      A                      A
 Frequencies --   1325.0674              1352.7915              1353.5735
 Red. masses --      1.3816                 1.2871                 1.3554
 Frc consts  --      1.4293                 1.3878                 1.4632
 IR Inten    --      4.7999                41.8160                23.3069

                     64                     65                     66
                      A                      A                      A
 Frequencies --   1380.8350              1390.7784              1397.7071
 Red. masses --      1.2607                 1.5512                 1.3333
 Frc consts  --      1.4163                 1.7678                 1.5347
 IR Inten    --      0.6198                18.5007                 9.6764

                     67                     68                     69
                      A                      A                      A
 Frequencies --   1412.2510              1428.7139              1439.1606
 Red. masses --      1.5363                 1.5690                 1.0933
 Frc consts  --      1.8053                 1.8869                 1.3342
 IR Inten    --     40.0002                17.2723                52.3506

                     70                     71                     72
                      A                      A                      A
 Frequencies --   1443.8548              1451.5422              1473.3441
 Red. masses --      1.8568                 1.1907                 1.1116
 Frc consts  --      2.2807                 1.4781                 1.4217
 IR Inten    --      7.9006                60.8601                 6.7702

                     73                     74                     75
                      A                      A                      A
 Frequencies --   1477.9731              1478.7071              1488.2061
 Red. masses --      1.1424                 1.1627                 1.0409
 Frc consts  --      1.4703                 1.4979                 1.3583
 IR Inten    --      3.4546                 2.3124                14.2356

                     76                     77                     78
                      A                      A                      A
 Frequencies --   1489.9642              1493.0000              1498.3833
 Red. masses --      1.0427                 1.0878                 1.0681
 Frc consts  --      1.3638                 1.4287                 1.4128
 IR Inten    --     13.9735                12.8742                16.5801

                     79                     80                     81
                      A                      A                      A
 Frequencies --   1499.2750              1503.1708              1517.5474
 Red. masses --      1.0690                 1.0462                 3.7122
 Frc consts  --      1.4157                 1.3928                 5.0369
 IR Inten    --     10.5577                18.1285               285.6392

                     82                     83                     84
                      A                      A                      A
 Frequencies --   1523.1557              1623.9331              2998.9256
 Red. masses --      1.1017                 5.2358                 1.0589
 Frc consts  --      1.5060                 8.1352                 5.6108
 IR Inten    --     16.3463               299.9240                32.0166

                     85                     86                     87
                      A                      A                      A
 Frequencies --   3018.5891              3025.3036              3029.5161
 Red. masses --      1.0361                 1.0358                 1.0384
 Frc consts  --      5.5622                 5.5856                 5.6152
 IR Inten    --     49.3778                29.0205                23.6398

                     88                     89                     90
                      A                      A                      A
 Frequencies --   3035.4995              3043.0420              3047.4693
 Red. masses --      1.0807                 1.0846                 1.1021
 Frc consts  --      5.8671                 5.9176                 6.0305
 IR Inten    --     22.5727                 4.4073                24.7925

                     91                     92                     93
                      A                      A                      A
 Frequencies --   3067.0160              3085.0687              3094.5936
 Red. masses --      1.0420                 1.1060                 1.0862
 Frc consts  --      5.7751                 6.2023                 6.1285
 IR Inten    --     18.8204                28.9636                 3.5409

                     94                     95                     96
                      A                      A                      A
 Frequencies --   3097.2472              3102.0982              3151.5938
 Red. masses --      1.1066                 1.1062                 1.0919
 Frc consts  --      6.2547                 6.2718                 6.3898
 IR Inten    --     25.2646                22.5725                 3.5969

                     97                     98                     99
                      A                      A                      A
 Frequencies --   3168.8419              3173.6561              3175.4950
 Red. masses --      1.1002                 1.0993                 1.1016
 Frc consts  --      6.5093                 6.5239                 6.5446
 IR Inten    --      8.7709                 5.2460                 6.0397

                    100                    101                    102
                      A                      A                      A
 Frequencies --   3176.7586              3177.8287              3206.5404
 Red. masses --      1.0897                 1.0924                 1.1069
 Frc consts  --      6.4790                 6.4994                 6.7055
 IR Inten    --      1.4094                 4.3255                 2.2180

 - Thermochemistry -
 -------------------
 Temperature   298.150 Kelvin.  Pressure   1.00000 Atm.
 Atom     1 has atomic number  6 and mass  12.00000

 Molecular mass:   247.11816 amu.
 Principal axes and moments of inertia in atomic units:
                           1         2         3
     Eigenvalues --  3129.586024613.692005568.60395
           X            0.99994  -0.00880   0.00577
           Y            0.00877   0.99995   0.00573
           Z           -0.00582  -0.00568   0.99997
 This molecule is an asymmetric top.
 Rotational symmetry number  1.
 Warning -- assumption of classical behavior for rotation
           may cause significant error
 Rotational temperatures (Kelvin)      0.02768     0.01877     0.01555
 Rotational constants (GHZ):           0.57667     0.39117     0.32409
 Zero-point vibrational energy     804962.9 (Joules/Mol)
                                  192.39075 (Kcal/Mol)
 Warning -- explicit consideration of  26 degrees of freedom as
           vibrations may cause significant error
 Vibrational temperatures:     64.61    85.13   103.59   116.54   124.12
          (Kelvin)            135.03   142.69   171.78   226.91   234.54
                              250.91   283.24   334.70   347.37   365.22
                              391.98   440.34   451.64   475.64   512.12
                              558.17   589.22   646.00   705.81   727.86
                              810.88   895.37   943.92  1005.96  1059.40
                             1108.86  1172.67  1282.40  1286.59  1349.59
                             1405.86  1436.44  1454.19  1465.87  1503.29
                             1511.27  1514.48  1536.75  1583.08  1638.92
                             1655.86  1674.92  1688.77  1692.35  1696.62
                             1703.92  1718.02  1766.28  1771.63  1777.84
                             1785.17  1796.82  1847.34  1886.13  1891.83
                             1906.47  1946.36  1947.49  1986.71  2001.02
                             2010.99  2031.91  2055.60  2070.63  2077.38
                             2088.44  2119.81  2126.47  2127.53  2141.19
                             2143.72  2148.09  2155.84  2157.12  2162.72
                             2183.41  2191.48  2336.47  4314.78  4343.07
                             4352.73  4358.79  4367.40  4378.25  4384.62
                             4412.75  4438.72  4452.42  4456.24  4463.22
                             4534.43  4559.25  4566.18  4568.82  4570.64
                             4572.18  4613.49

 Zero-point correction=                           0.306594 (Hartree/Particle)
 Thermal correction to Energy=                    0.324530
 Thermal correction to Enthalpy=                  0.325474
 Thermal correction to Gibbs Free Energy=         0.260514
 Sum of electronic and zero-point Energies=           -880.626287
 Sum of electronic and thermal Energies=              -880.608351
 Sum of electronic and thermal Enthalpies=            -880.607407
 Sum of electronic and thermal Free Energies=         -880.672367

                     E (Thermal)             CV                S
                      KCal/Mol        Cal/Mol-Kelvin    Cal/Mol-Kelvin
 Total                  203.646             65.189            136.720
 Electronic               0.000              0.000              0.000
 Translational            0.889              2.981             42.415
 Rotational               0.889              2.981             32.753
 Vibrational            201.868             59.228             61.553
 Vibration     1          0.595              1.979              5.030
 Vibration     2          0.597              1.974              4.485
 Vibration     3          0.598              1.967              4.098
 Vibration     4          0.600              1.962              3.867
 Vibration     5          0.601              1.959              3.743
 Vibration     6          0.603              1.954              3.578
 Vibration     7          0.604              1.950              3.470
 Vibration     8          0.609              1.933              3.110
 Vibration     9          0.621              1.894              2.577
 Vibration    10          0.623              1.888              2.515
 Vibration    11          0.627              1.874              2.388
 Vibration    12          0.636              1.844              2.162
 Vibration    13          0.653              1.791              1.859
 Vibration    14          0.658              1.777              1.792
 Vibration    15          0.665              1.756              1.704
 Vibration    16          0.675              1.724              1.581
 Vibration    17          0.696              1.662              1.384
 Vibration    18          0.702              1.647              1.342
 Vibration    19          0.713              1.614              1.257
 Vibration    20          0.731              1.563              1.140
 Vibration    21          0.756              1.496              1.008
 Vibration    22          0.774              1.450              0.928
 Vibration    23          0.808              1.363              0.799
 Vibration    24          0.846              1.271              0.682
 Vibration    25          0.861              1.237              0.644
 Vibration    26          0.919              1.110              0.517

 Optimization completed.
    -- Stationary point found.
 Normal termination of Gaussian 09 at Mon Jan  9 13:24:11 2017.
