 Gaussian 09, Revision D.01,
 Gaussian 09:  EM64L-G09RevD.01 24-Apr-2013

 -------------------------------------------------------------------
 #P PBE1PBE/6-311+G(d,p) opt optcyc=999 freq EmpiricalDispersion=GD3
 -------------------------------------------------------------------

 -------
 disacch
 -------
 Symbolic Z-matrix:
 Charge =  1 Multiplicity = 1

 SCF Done:  E(RPBE1PBE) =  -880.913983329     A.U. after   15 cycles
 SCF Done:  E(RPBE1PBE) =  -880.918479591     A.U. after   12 cycles
 SCF Done:  E(RPBE1PBE) =  -880.919132589     A.U. after   12 cycles
 SCF Done:  E(RPBE1PBE) =  -880.919505840     A.U. after   13 cycles
 SCF Done:  E(RPBE1PBE) =  -880.919395394     A.U. after   11 cycles
 SCF Done:  E(RPBE1PBE) =  -880.919808872     A.U. after   11 cycles
 SCF Done:  E(RPBE1PBE) =  -880.919912217     A.U. after   11 cycles
 SCF Done:  E(RPBE1PBE) =  -880.919937591     A.U. after   12 cycles
 SCF Done:  E(RPBE1PBE) =  -880.919944656     A.U. after   11 cycles
 SCF Done:  E(RPBE1PBE) =  -880.919947360     A.U. after   11 cycles
 SCF Done:  E(RPBE1PBE) =  -880.919947499     A.U. after    8 cycles
 SCF Done:  E(RPBE1PBE) =  -880.919947889     A.U. after   10 cycles
 SCF Done:  E(RPBE1PBE) =  -880.919947859     A.U. after    7 cycles
 SCF Done:  E(RPBE1PBE) =  -880.919947857     A.U. after    8 cycles
 SCF Done:  E(RPBE1PBE) =  -880.919947839     A.U. after    8 cycles
 SCF Done:  E(RPBE1PBE) =  -880.919947864     A.U. after    7 cycles
 SCF Done:  E(RPBE1PBE) =  -880.919947954     A.U. after   12 cycles
 SCF Done:  E(RPBE1PBE) =  -880.919948041     A.U. after    7 cycles
 Optimization completed.
    -- Stationary point found.
 Normal termination of Gaussian 09 at Tue Jan 10 01:23:11 2017.

 ----------------------------------------------------------------------
 #P Geom=AllCheck Guess=TCheck SCRF=Check GenChk RPBE1PBE/6-311+G(d,p)
 Freq
 ----------------------------------------------------------------------

 Structure from the checkpoint file:  "Ac-4_cGalMe.chk"
 -------
 disacch
 -------
 Charge =  1 Multiplicity = 1

                         Standard orientation:
 ---------------------------------------------------------------------
 Center     Atomic      Atomic             Coordinates (Angstroms)
 Number     Number       Type             X           Y           Z
 ---------------------------------------------------------------------
      1          6           0       -0.227048   -2.004862    0.254944
      2          6           0        0.235387   -1.086068   -0.871628
      3          6           0        0.758742    0.281811   -0.430497
      4          6           0       -0.218345    0.982198    0.515183
      5          6           0       -1.644051    0.856009   -0.056880
      6          6           0       -1.884811   -0.519414   -0.668727
      7          8           0       -0.983680   -0.900189   -1.601933
      8          8           0       -0.214269    0.411272    1.800330
      9          8           0        2.001956    0.154003    0.237443
     10          8           0       -1.618017   -1.535044    0.472965
     11          1           0        0.297319   -1.870586    1.197605
     12          1           0       -0.284754   -3.045168   -0.065542
     13          1           0        0.952756   -1.569464   -1.532970
     14          1           0        0.871913    0.871685   -1.345466
     15          1           0        0.033125    2.048592    0.564736
     16          1           0       -2.355379    1.008724    0.766739
     17          1           0       -2.905211   -0.671422   -1.020271
     18          8           0       -1.870122    1.720906   -1.128301
     19          6           0       -2.621530   -2.571216    0.679180
     20          1           0       -3.545915   -2.058908    0.938447
     21          1           0       -2.723463   -3.164130   -0.231829
     22          1           0       -2.279205   -3.174328    1.517953
     23          6           0       -2.317876    3.015668   -0.753163
     24          1           0       -3.278178    2.960600   -0.226831
     25          1           0       -1.585150    3.529763   -0.120020
     26          1           0       -2.443361    3.577857   -1.677175
     27          6           0        0.556370    1.117575    2.764709
     28          1           0        1.615224    1.131342    2.493600
     29          1           0        0.188773    2.144806    2.876332
     30          1           0        0.427294    0.592179    3.710782
     31          6           0        3.097572   -0.029322   -0.565559
     32          8           0        2.993871   -0.175897   -1.749954
     33          6           0        4.355960   -0.003854    0.233574
     34          1           0        4.254572   -0.606447    1.137936
     35          1           0        4.558444    1.025736    0.543136
     36          1           0        5.181060   -0.362389   -0.378371
 ---------------------------------------------------------------------

 SCF Done:  E(RPBE1PBE) =  -880.919948041     A.U. after    6 cycles

 The electronic state is 1-A.
 Alpha  occ. eigenvalues --  -19.49404 -19.40605 -19.38062 -19.35471 -19.34699
 Alpha  occ. eigenvalues --  -19.31430 -10.51760 -10.47475 -10.46227 -10.45999
 Alpha  occ. eigenvalues --  -10.44959 -10.43568 -10.42795 -10.42460 -10.38502
 Alpha  occ. eigenvalues --  -10.37912 -10.33682  -1.35558  -1.27411  -1.26674
 Alpha  occ. eigenvalues --   -1.22255  -1.20848  -1.17908  -1.00280  -0.98090
 Alpha  occ. eigenvalues --   -0.94797  -0.90092  -0.87333  -0.85902  -0.83365
 Alpha  occ. eigenvalues --   -0.82685  -0.80242  -0.76276  -0.74700  -0.73398
 Alpha  occ. eigenvalues --   -0.70705  -0.68081  -0.67502  -0.66865  -0.65578
 Alpha  occ. eigenvalues --   -0.64636  -0.63496  -0.62425  -0.62258  -0.61416
 Alpha  occ. eigenvalues --   -0.60322  -0.59830  -0.59430  -0.58873  -0.57907
 Alpha  occ. eigenvalues --   -0.56088  -0.55592  -0.55134  -0.53162  -0.52970
 Alpha  occ. eigenvalues --   -0.52191  -0.51693  -0.51573  -0.50206  -0.48253
 Alpha  occ. eigenvalues --   -0.47121  -0.46926  -0.44662  -0.42290  -0.41567
 Alpha  occ. eigenvalues --   -0.40242
 Alpha virt. eigenvalues --   -0.13912  -0.12008  -0.11163  -0.10635  -0.09995
 Alpha virt. eigenvalues --   -0.09504  -0.08970  -0.08006  -0.07220  -0.06855
 Alpha virt. eigenvalues --   -0.06247  -0.05945  -0.05154  -0.04885  -0.04020

 Mulliken charges:
               1
     1  C   -0.419236
     2  C   -0.067707
     3  C   -0.732018
     4  C   -0.530974
     5  C   -0.131399
     6  C   -0.618461
     7  O    0.100068
     8  O    0.001095
     9  O    0.170509
    10  O    0.209145
    11  H    0.295513
    12  H    0.253225
    13  H    0.276610
    14  H    0.282610
    15  H    0.210651
    16  H    0.229229
    17  H    0.280262
    18  O    0.039293
    19  C   -0.252702
    20  H    0.227782
    21  H    0.237814
    22  H    0.225705
    23  C   -0.276099
    24  H    0.175314
    25  H    0.167148
    26  H    0.202340
    27  C   -0.233986
    28  H    0.196452
    29  H    0.174550
    30  H    0.185601
    31  C    0.421959
    32  O   -0.216066
    33  C   -0.719292
    34  H    0.196834
    35  H    0.215895
    36  H    0.222335
 Sum of Mulliken charges =   1.00000

 Dipole moment (field-independent basis, Debye):
    X=             -4.5142    Y=             -3.3288    Z=              4.1618  Tot=              6.9842
 Quadrupole moment (field-independent basis, Debye-Ang):
   XX=            -63.2333   YY=            -66.9752   ZZ=           -100.2230
   XY=              7.7609   XZ=              4.7069   YZ=             -1.7832

  Exact polarizability: 154.172  -1.161 134.637   1.565  -1.328 130.094
 Approx polarizability: 187.149  -1.874 174.863  -0.230  -2.098 193.605

                      1                      2                      3
                      A                      A                      A
 Frequencies --     50.8290                59.1898                72.3686
 Red. masses --      4.4159                 2.9272                 2.8459
 Frc consts  --      0.0067                 0.0060                 0.0088
 IR Inten    --      0.1241                 3.4783                 2.2237

                      4                      5                      6
                      A                      A                      A
 Frequencies --     84.0698                86.4023                88.3637
 Red. masses --      2.3253                 1.3305                 3.4273
 Frc consts  --      0.0097                 0.0059                 0.0158
 IR Inten    --      3.0046                 0.3006                 0.7969

                      7                      8                      9
                      A                      A                      A
 Frequencies --     99.8223               121.4457               148.7394
 Red. masses --      2.4345                 2.3241                 1.6641
 Frc consts  --      0.0143                 0.0202                 0.0217
 IR Inten    --      1.9461                 3.9724                 1.5188

                     10                     11                     12
                      A                      A                      A
 Frequencies --    160.9418               173.1704               204.6356
 Red. masses --      1.7066                 2.6323                 2.1127
 Frc consts  --      0.0260                 0.0465                 0.0521
 IR Inten    --      0.6452                 3.7263                 5.6634

                     13                     14                     15
                      A                      A                      A
 Frequencies --    213.9061               233.7665               263.4804
 Red. masses --      1.4751                 2.8530                 4.7206
 Frc consts  --      0.0398                 0.0919                 0.1931
 IR Inten    --      8.3880                 2.1777                 4.3499

                     16                     17                     18
                      A                      A                      A
 Frequencies --    281.0744               299.4982               318.0566
 Red. masses --      3.9765                 3.2136                 3.6559
 Frc consts  --      0.1851                 0.1698                 0.2179
 IR Inten    --      0.7910                 8.0957                 1.9050

                     19                     20                     21
                      A                      A                      A
 Frequencies --    328.6816               373.6431               394.0801
 Red. masses --      3.7499                 4.7686                 3.2095
 Frc consts  --      0.2387                 0.3922                 0.2937
 IR Inten    --      5.4198                 2.9667                 0.1448

                     22                     23                     24
                      A                      A                      A
 Frequencies --    431.2852               489.8560               501.1587
 Red. masses --      3.8457                 4.3352                 4.9999
 Frc consts  --      0.4215                 0.6129                 0.7399
 IR Inten    --     11.6422                 3.3593                26.6646

                     25                     26                     27
                      A                      A                      A
 Frequencies --    540.1910               581.2141               606.7361
 Red. masses --      3.9715                 5.9094                 2.7027
 Frc consts  --      0.6828                 1.1762                 0.5862
 IR Inten    --      8.6324                36.5454                10.6862

                     28                     29                     30
                      A                      A                      A
 Frequencies --    639.2248               671.4779               733.2842
 Red. masses --      5.7693                 5.4959                 4.6007
 Frc consts  --      1.3889                 1.4600                 1.4575
 IR Inten    --     39.3594                10.2973                23.3939

                     31                     32                     33
                      A                      A                      A
 Frequencies --    745.1425               820.8648               862.4626
 Red. masses --      5.1526                 3.7376                 3.9118
 Frc consts  --      1.6856                 1.4839                 1.7144
 IR Inten    --     71.5932                 5.8047                19.0117

                     34                     35                     36
                      A                      A                      A
 Frequencies --    901.0953               916.0457               948.1037
 Red. masses --      3.4157                 3.7513                 3.2443
 Frc consts  --      1.6341                 1.8547                 1.7182
 IR Inten    --     13.6175                40.1556                54.1999

                     37                     38                     39
                      A                      A                      A
 Frequencies --    954.2942              1000.8768              1013.3409
 Red. masses --      2.6858                 2.7370                 2.5144
 Frc consts  --      1.4411                 1.6154                 1.5212
 IR Inten    --     16.1849                 9.1756                 1.1854

                     40                     41                     42
                      A                      A                      A
 Frequencies --   1023.5592              1037.1028              1056.8031
 Red. masses --      2.4791                 4.1516                 2.5681
 Frc consts  --      1.5303                 2.6309                 1.6899
 IR Inten    --     93.0243                20.3911                52.5034

                     43                     44                     45
                      A                      A                      A
 Frequencies --   1062.7876              1070.4028              1091.0575
 Red. masses --      2.0237                 3.8836                 1.8137
 Frc consts  --      1.3468                 2.6217                 1.2721
 IR Inten    --      0.9726                48.5283                50.5923

                     46                     47                     48
                      A                      A                      A
 Frequencies --   1126.6114              1140.4432              1162.9597
 Red. masses --      4.3856                 2.6308                 2.2714
 Frc consts  --      3.2797                 2.0160                 1.8100
 IR Inten    --     91.3390               106.3908                97.0152

                     49                     50                     51
                      A                      A                      A
 Frequencies --   1168.6194              1174.7429              1176.0748
 Red. masses --      1.4523                 1.2959                 1.2768
 Frc consts  --      1.1686                 1.0537                 1.0405
 IR Inten    --     41.1909                 8.1442                 3.7526

                     52                     53                     54
                      A                      A                      A
 Frequencies --   1182.3906              1194.8992              1217.2133
 Red. masses --      1.6573                 1.3513                 2.1581
 Frc consts  --      1.3652                 1.1367                 1.8839
 IR Inten    --     32.5088                19.7566                84.6631

                     55                     56                     57
                      A                      A                      A
 Frequencies --   1225.5258              1234.6350              1239.3945
 Red. masses --      1.8295                 2.9523                 1.2466
 Frc consts  --      1.6189                 2.6515                 1.1282
 IR Inten    --     21.0275               427.2883                40.1642

                     58                     59                     60
                      A                      A                      A
 Frequencies --   1246.2277              1271.8961              1283.7989
 Red. masses --      2.9674                 1.3608                 1.7170
 Frc consts  --      2.7153                 1.2971                 1.6673
 IR Inten    --     74.6115                14.0451                28.4164

                     61                     62                     63
                      A                      A                      A
 Frequencies --   1318.6749              1329.7695              1349.7146
 Red. masses --      1.2333                 1.3451                 1.5943
 Frc consts  --      1.2636                 1.4013                 1.7112
 IR Inten    --      8.1799                 2.7628                17.7126

                     64                     65                     66
                      A                      A                      A
 Frequencies --   1368.3707              1378.7996              1391.3466
 Red. masses --      1.3118                 1.5506                 1.3497
 Frc consts  --      1.4472                 1.7368                 1.5394
 IR Inten    --      4.7655                 1.4596                19.8635

                     67                     68                     69
                      A                      A                      A
 Frequencies --   1398.5991              1405.7184              1418.6888
 Red. masses --      1.3894                 1.5698                 1.6535
 Frc consts  --      1.6013                 1.8277                 1.9608
 IR Inten    --     87.1250                 6.4910                 1.6667

                     70                     71                     72
                      A                      A                      A
 Frequencies --   1433.1106              1460.1300              1462.7042
 Red. masses --      1.6764                 1.0470                 1.1266
 Frc consts  --      2.0285                 1.3152                 1.4202
 IR Inten    --      8.1897                14.6862                 3.8206

                     73                     74                     75
                      A                      A                      A
 Frequencies --   1468.9159              1472.9702              1476.2999
 Red. masses --      1.0530                 1.1291                 1.1575
 Frc consts  --      1.3387                 1.4434                 1.4864
 IR Inten    --     15.6017                 3.6373                 3.5742

                     76                     77                     78
                      A                      A                      A
 Frequencies --   1480.7140              1483.9636              1485.5208
 Red. masses --      1.0756                 1.0505                 1.0461
 Frc consts  --      1.3895                 1.3630                 1.3602
 IR Inten    --     21.5634                11.4764                13.2685

                     79                     80                     81
                      A                      A                      A
 Frequencies --   1489.9072              1491.0165              1497.9371
 Red. masses --      1.0728                 1.0501                 1.0651
 Frc consts  --      1.4031                 1.3755                 1.4080
 IR Inten    --     21.7527                 8.0804                10.8383

                     82                     83                     84
                      A                      A                      A
 Frequencies --   1505.8866              1859.4371              3024.7016
 Red. masses --      1.0462                11.6762                 1.0357
 Frc consts  --      1.3979                23.7856                 5.5825
 IR Inten    --      9.7968               242.3662                28.3114

                     85                     86                     87
                      A                      A                      A
 Frequencies --   3033.5878              3041.7324              3058.6501
 Red. masses --      1.0375                 1.0843                 1.0855
 Frc consts  --      5.6256                 5.9107                 5.9833
 IR Inten    --     39.6865                14.2209                14.2105

                     88                     89                     90
                      A                      A                      A
 Frequencies --   3073.9273              3079.7988              3095.1277
 Red. masses --      1.0384                 1.0296                 1.1065
 Frc consts  --      5.7810                 5.7539                 6.2453
 IR Inten    --      1.3467                 2.9145                28.4564

                     91                     92                     93
                      A                      A                      A
 Frequencies --   3100.7172              3118.6300              3121.2191
 Red. masses --      1.0851                 1.0997                 1.0609
 Frc consts  --      6.1465                 6.3016                 6.0895
 IR Inten    --      3.2754                19.8562                 4.0054

                     94                     95                     96
                      A                      A                      A
 Frequencies --   3149.1381              3164.0464              3166.8784
 Red. masses --      1.0982                 1.0902                 1.1040
 Frc consts  --      6.4167                 6.4304                 6.5234
 IR Inten    --      0.9089                 0.5832                 9.8069

                     97                     98                     99
                      A                      A                      A
 Frequencies --   3167.3344              3176.0560              3193.9873
 Red. masses --      1.0930                 1.1005                 1.1093
 Frc consts  --      6.4604                 6.5409                 6.6674
 IR Inten    --      3.7108                 4.6566                 0.2225

                    100                    101                    102
                      A                      A                      A
 Frequencies --   3197.7549              3211.8991              3218.0492
 Red. masses --      1.1044                 1.1102                 1.1120
 Frc consts  --      6.6539                 6.7483                 6.7849
 IR Inten    --      0.6788                 0.4790                 1.6505

 - Thermochemistry -
 -------------------
 Temperature   298.150 Kelvin.  Pressure   1.00000 Atm.
 Atom     1 has atomic number  6 and mass  12.00000

 Molecular mass:   247.11816 amu.
 Principal axes and moments of inertia in atomic units:
                           1         2         3
     Eigenvalues --  2928.266584886.030615389.33661
           X            0.99991   0.00182   0.01322
           Y           -0.00181   1.00000  -0.00010
           Z           -0.01322   0.00007   0.99991
 This molecule is an asymmetric top.
 Rotational symmetry number  1.
 Warning -- assumption of classical behavior for rotation
           may cause significant error
 Rotational temperatures (Kelvin)      0.02958     0.01773     0.01607
 Rotational constants (GHZ):           0.61632     0.36937     0.33487
 Zero-point vibrational energy     805214.8 (Joules/Mol)
                                  192.45095 (Kcal/Mol)
 Warning -- explicit consideration of  27 degrees of freedom as
           vibrations may cause significant error
 Vibrational temperatures:     73.13    85.16   104.12   120.96   124.31
          (Kelvin)            127.14   143.62   174.73   214.00   231.56
                              249.15   294.42   307.76   336.34   379.09
                              404.40   430.91   457.61   472.90   537.59
                              566.99   620.52   704.79   721.05   777.21
                              836.24   872.96   919.70   966.11  1055.03
                             1072.09  1181.04  1240.89  1296.47  1317.98
                             1364.11  1373.01  1440.04  1457.97  1472.67
                             1492.16  1520.50  1529.11  1540.07  1569.79
                             1620.94  1640.84  1673.24  1681.38  1690.19
                             1692.11  1701.19  1719.19  1751.30  1763.26
                             1776.36  1783.21  1793.04  1829.97  1847.10
                             1897.28  1913.24  1941.94  1968.78  1983.78
                             2001.83  2012.27  2022.51  2041.17  2061.92
                             2100.80  2104.50  2113.44  2119.27  2124.06
                             2130.41  2135.09  2137.33  2143.64  2145.24
                             2155.19  2166.63  2675.31  4351.87  4364.65
                             4376.37  4400.71  4422.69  4431.14  4453.19
                             4461.23  4487.01  4490.73  4530.90  4552.35
                             4556.43  4557.08  4569.63  4595.43  4600.85
                             4621.20  4630.05

 Zero-point correction=                           0.306690 (Hartree/Particle)
 Thermal correction to Energy=                    0.324612
 Thermal correction to Enthalpy=                  0.325557
 Thermal correction to Gibbs Free Energy=         0.260730
 Sum of electronic and zero-point Energies=           -880.613258
 Sum of electronic and thermal Energies=              -880.595336
 Sum of electronic and thermal Enthalpies=            -880.594391
 Sum of electronic and thermal Free Energies=         -880.659218

                     E (Thermal)             CV                S
                      KCal/Mol        Cal/Mol-Kelvin    Cal/Mol-Kelvin
 Total                  203.697             65.526            136.439
 Electronic               0.000              0.000              0.000
 Translational            0.889              2.981             42.415
 Rotational               0.889              2.981             32.711
 Vibrational            201.920             59.564             61.313
 Vibration     1          0.595              1.977              4.785
 Vibration     2          0.597              1.974              4.484
 Vibration     3          0.598              1.967              4.088
 Vibration     4          0.601              1.960              3.794
 Vibration     5          0.601              1.959              3.740
 Vibration     6          0.601              1.957              3.696
 Vibration     7          0.604              1.949              3.458
 Vibration     8          0.609              1.931              3.077
 Vibration     9          0.618              1.904              2.688
 Vibration    10          0.622              1.890              2.539
 Vibration    11          0.627              1.875              2.401
 Vibration    12          0.640              1.833              2.091
 Vibration    13          0.644              1.820              2.010
 Vibration    14          0.654              1.789              1.850
 Vibration    15          0.670              1.740              1.639
 Vibration    16          0.681              1.709              1.527
 Vibration    17          0.692              1.675              1.420
 Vibration    18          0.704              1.639              1.320
 Vibration    19          0.712              1.618              1.267
 Vibration    20          0.745              1.526              1.065
 Vibration    21          0.761              1.483              0.985
 Vibration    22          0.792              1.402              0.854
 Vibration    23          0.846              1.273              0.684
 Vibration    24          0.857              1.247              0.655
 Vibration    25          0.895              1.161              0.565
 Vibration    26          0.938              1.072              0.483
 Vibration    27          0.965              1.018              0.438

 Optimization completed.
    -- Stationary point found.
 Normal termination of Gaussian 09 at Tue Jan 10 01:49:35 2017.
