 Gaussian 09, Revision D.01,
 Gaussian 09:  EM64L-G09RevD.01 24-Apr-2013

 -------------------------------------------------------------------
 #P PBE1PBE/6-311+G(d,p) opt optcyc=999 freq EmpiricalDispersion=GD3
 -------------------------------------------------------------------

 -------
 disacch
 -------
 Symbolic Z-matrix:
 Charge =  1 Multiplicity = 1

 SCF Done:  E(RPBE1PBE) =  -880.922065749     A.U. after   19 cycles
 SCF Done:  E(RPBE1PBE) =  -880.926319768     A.U. after   16 cycles
 SCF Done:  E(RPBE1PBE) =  -880.926941247     A.U. after   13 cycles
 SCF Done:  E(RPBE1PBE) =  -880.927256615     A.U. after   12 cycles
 SCF Done:  E(RPBE1PBE) =  -880.927403373     A.U. after   11 cycles
 SCF Done:  E(RPBE1PBE) =  -880.927492715     A.U. after   16 cycles
 SCF Done:  E(RPBE1PBE) =  -880.927504021     A.U. after   16 cycles
 SCF Done:  E(RPBE1PBE) =  -880.927506905     A.U. after   14 cycles
 SCF Done:  E(RPBE1PBE) =  -880.927506965     A.U. after   14 cycles
 SCF Done:  E(RPBE1PBE) =  -880.927507187     A.U. after   11 cycles
 SCF Done:  E(RPBE1PBE) =  -880.927507292     A.U. after   10 cycles
 SCF Done:  E(RPBE1PBE) =  -880.927507593     A.U. after   12 cycles
 SCF Done:  E(RPBE1PBE) =  -880.927507931     A.U. after   14 cycles
 SCF Done:  E(RPBE1PBE) =  -880.927508019     A.U. after   14 cycles
 Optimization completed.
    -- Stationary point found.
 Normal termination of Gaussian 09 at Tue Oct 24 14:19:35 2017.

 ----------------------------------------------------------------------
 #P Geom=AllCheck Guess=TCheck SCRF=Check GenChk RPBE1PBE/6-311+G(d,p)
 Freq
 ----------------------------------------------------------------------

 Structure from the checkpoint file:  "Ac-4_cGalMe.chk"
 -------
 disacch
 -------
 Charge =  1 Multiplicity = 1

                         Standard orientation:
 ---------------------------------------------------------------------
 Center     Atomic      Atomic             Coordinates (Angstroms)
 Number     Number       Type             X           Y           Z
 ---------------------------------------------------------------------
      1          6           0        2.604308    0.056893   -0.705596
      2          6           0        1.218952   -0.452166   -0.382224
      3          6           0        0.102473    0.296463   -1.074622
      4          6           0       -1.254086   -0.356380   -0.811880
      5          6           0       -1.291039   -0.940136    0.623104
      6          6           0       -0.239779   -0.239271    1.464912
      7          8           0        1.028248   -0.343405    1.042599
      8          8           0       -2.240240    0.604984   -1.045187
      9          8           0        0.088989    1.694546   -0.610869
     10          8           0        3.512975   -0.860733   -0.192199
     11          1           0        2.745562    1.058940   -0.269087
     12          1           0        2.697748    0.150617   -1.801341
     13          1           0        1.154415   -1.511878   -0.655794
     14          1           0        0.283119    0.408434   -2.142734
     15          1           0       -1.331028   -1.199717   -1.513629
     16          1           0       -2.276529   -0.747604    1.068416
     17          1           0       -0.291303   -0.466221    2.526974
     18          8           0       -0.947341   -2.290323    0.660859
     19          6           0        4.857545   -0.455985   -0.350942
     20          1           0        5.477910   -1.243249    0.075311
     21          1           0        5.113420   -0.330379   -1.411516
     22          1           0        5.053973    0.484632    0.180423
     23          6           0       -2.035151   -3.172164    0.429322
     24          1           0       -2.801711   -3.056450    1.204631
     25          1           0       -2.488321   -3.008312   -0.556917
     26          1           0       -1.630551   -4.182150    0.469452
     27          6           0       -3.518484    0.066777   -1.352608
     28          1           0       -3.476309   -0.525708   -2.273769
     29          1           0       -3.905598   -0.556032   -0.537176
     30          1           0       -4.187339    0.913349   -1.499395
     31          6           0       -0.408821    2.039841    0.518889
     32          8           0       -0.667569    1.249530    1.475264
     33          6           0       -0.697024    3.474124    0.697554
     34          1           0       -1.676736    3.662582    0.243033
     35          1           0        0.039460    4.072360    0.160030
     36          1           0       -0.734037    3.732017    1.753901
 ---------------------------------------------------------------------

 SCF Done:  E(RPBE1PBE) =  -880.927508019     A.U. after    3 cycles

 The electronic state is 1-A.
 Alpha  occ. eigenvalues --  -19.45578 -19.44806 -19.39490 -19.36822 -19.35982
 Alpha  occ. eigenvalues --  -19.32327 -10.57466 -10.50756 -10.46750 -10.44541
 Alpha  occ. eigenvalues --  -10.43993 -10.43901 -10.40152 -10.39773 -10.39076
 Alpha  occ. eigenvalues --  -10.39015 -10.35884  -1.37283  -1.29245  -1.26735
 Alpha  occ. eigenvalues --   -1.23500  -1.22161  -1.19061  -1.02154  -0.98768
 Alpha  occ. eigenvalues --   -0.95486  -0.90410  -0.88092  -0.86268  -0.83438
 Alpha  occ. eigenvalues --   -0.81190  -0.79295  -0.77458  -0.76849  -0.73340
 Alpha  occ. eigenvalues --   -0.71975  -0.68495  -0.67842  -0.67132  -0.66568
 Alpha  occ. eigenvalues --   -0.64375  -0.64137  -0.63665  -0.61892  -0.61332
 Alpha  occ. eigenvalues --   -0.60465  -0.59618  -0.58911  -0.58467  -0.57998
 Alpha  occ. eigenvalues --   -0.57568  -0.56900  -0.55441  -0.54751  -0.54328
 Alpha  occ. eigenvalues --   -0.53275  -0.51807  -0.51152  -0.49448  -0.48734
 Alpha  occ. eigenvalues --   -0.47601  -0.46584  -0.44963  -0.44776  -0.41023
 Alpha  occ. eigenvalues --   -0.38815
 Alpha virt. eigenvalues --   -0.20225  -0.11824  -0.10222  -0.09773  -0.09553
 Alpha virt. eigenvalues --   -0.08629  -0.07791  -0.07376  -0.06875  -0.06387
 Alpha virt. eigenvalues --   -0.05939  -0.05532  -0.05129  -0.04381  -0.04220

 Mulliken charges:
               1
     1  C   -0.445570
     2  C   -0.133092
     3  C    0.021549
     4  C   -0.589974
     5  C   -0.233219
     6  C   -0.475018
     7  O    0.073194
     8  O    0.046941
     9  O    0.244329
    10  O   -0.106383
    11  H    0.190550
    12  H    0.173801
    13  H    0.271576
    14  H    0.252359
    15  H    0.246396
    16  H    0.250470
    17  H    0.287142
    18  O    0.048122
    19  C   -0.297148
    20  H    0.187593
    21  H    0.157843
    22  H    0.160258
    23  C   -0.258440
    24  H    0.180483
    25  H    0.174370
    26  H    0.209671
    27  C   -0.246471
    28  H    0.184745
    29  H    0.179765
    30  H    0.203071
    31  C    0.116186
    32  O    0.262380
    33  C   -1.048378
    34  H    0.247708
    35  H    0.232749
    36  H    0.230444
 Sum of Mulliken charges =   1.00000

 Dipole moment (field-independent basis, Debye):
    X=             -3.4255    Y=              2.8478    Z=             -1.1249  Tot=              4.5945
 Quadrupole moment (field-independent basis, Debye-Ang):
   XX=            -67.2292   YY=            -73.8524   ZZ=            -89.6610
   XY=              6.7939   XZ=             -3.2519   YZ=              4.8915

  Exact polarizability: 153.470  -1.460 148.104  -1.338   0.031 122.902
 Approx polarizability: 182.536  -5.707 194.145  -5.454  -1.842 184.288

                      1                      2                      3
                      A                      A                      A
 Frequencies --     50.7864                59.4815                79.8081
 Red. masses --      3.8376                 3.6601                 2.8109
 Frc consts  --      0.0058                 0.0076                 0.0105
 IR Inten    --      0.3473                 0.7175                 5.5516

                      4                      5                      6
                      A                      A                      A
 Frequencies --     87.1629                89.7703                97.8913
 Red. masses --      2.7790                 1.0752                 2.4215
 Frc consts  --      0.0124                 0.0051                 0.0137
 IR Inten    --      3.2529                 0.5385                 0.5144

                      7                      8                      9
                      A                      A                      A
 Frequencies --    101.9046               112.5756               159.9360
 Red. masses --      2.5585                 2.3892                 1.7966
 Frc consts  --      0.0157                 0.0178                 0.0271
 IR Inten    --      0.8892                 5.1916                 2.1093

                     10                     11                     12
                      A                      A                      A
 Frequencies --    173.4615               176.7927               201.5642
 Red. masses --      1.2938                 3.3682                 2.8646
 Frc consts  --      0.0229                 0.0620                 0.0686
 IR Inten    --      0.1241                 0.3132                 2.2654

                     13                     14                     15
                      A                      A                      A
 Frequencies --    224.1851               230.7237               272.1332
 Red. masses --      1.3083                 2.5377                 3.9993
 Frc consts  --      0.0387                 0.0796                 0.1745
 IR Inten    --      3.5860                 0.3346                 2.1651

                     16                     17                     18
                      A                      A                      A
 Frequencies --    278.9832               294.6263               311.3751
 Red. masses --      5.2020                 4.6568                 4.4154
 Frc consts  --      0.2385                 0.2382                 0.2522
 IR Inten    --      1.9367                 3.0803                 3.5414

                     19                     20                     21
                      A                      A                      A
 Frequencies --    340.4993               344.4250               361.4902
 Red. masses --      3.8937                 3.7945                 5.1851
 Frc consts  --      0.2660                 0.2652                 0.3992
 IR Inten    --     10.0229                 1.7963                 3.2752

                     22                     23                     24
                      A                      A                      A
 Frequencies --    391.0103               432.3785               496.4568
 Red. masses --      3.7469                 4.7038                 4.6262
 Frc consts  --      0.3375                 0.5181                 0.6718
 IR Inten    --     12.9004                 4.0476                 7.2830

                     25                     26                     27
                      A                      A                      A
 Frequencies --    514.9884               564.7186               618.1379
 Red. masses --      4.2709                 3.1962                 3.5511
 Frc consts  --      0.6674                 0.6005                 0.7994
 IR Inten    --      8.6621                 3.7568                 6.2192

                     28                     29                     30
                      A                      A                      A
 Frequencies --    650.5655               700.1636               743.7617
 Red. masses --      5.1790                 6.0493                 5.7295
 Frc consts  --      1.2914                 1.7472                 1.8674
 IR Inten    --     40.9519               117.9259                41.0486

                     31                     32                     33
                      A                      A                      A
 Frequencies --    772.4180               820.6438               855.5993
 Red. masses --      4.8580                 6.2598                 2.8299
 Frc consts  --      1.7077                 2.4838                 1.2206
 IR Inten    --      3.9315                24.2225                 8.5688

                     34                     35                     36
                      A                      A                      A
 Frequencies --    904.3879               956.6372               972.5409
 Red. masses --      3.2330                 4.7543                 3.0874
 Frc consts  --      1.5580                 2.5635                 1.7205
 IR Inten    --      8.4762                23.7984                21.7733

                     37                     38                     39
                      A                      A                      A
 Frequencies --   1001.4272              1009.9552              1020.4276
 Red. masses --      2.2911                 3.5466                 3.1675
 Frc consts  --      1.3537                 2.1314                 1.9433
 IR Inten    --      2.0462                23.9886                13.8433

                     40                     41                     42
                      A                      A                      A
 Frequencies --   1039.5203              1046.9758              1052.5015
 Red. masses --      2.5438                 2.1198                 1.9131
 Frc consts  --      1.6196                 1.3691                 1.2486
 IR Inten    --     52.8185                10.8409                37.3542

                     43                     44                     45
                      A                      A                      A
 Frequencies --   1074.5477              1097.0501              1137.3984
 Red. masses --      2.7003                 2.5995                 2.3710
 Frc consts  --      1.8370                 1.8433                 1.8072
 IR Inten    --     22.7281                22.8861                64.6525

                     46                     47                     48
                      A                      A                      A
 Frequencies --   1145.8374              1165.2538              1172.1684
 Red. masses --      1.8918                 2.3589                 1.6753
 Frc consts  --      1.4634                 1.8871                 1.3562
 IR Inten    --     27.5014               144.3325                63.2535

                     49                     50                     51
                      A                      A                      A
 Frequencies --   1178.3657              1179.4769              1182.9767
 Red. masses --      1.3721                 1.3420                 1.6693
 Frc consts  --      1.1226                 1.1000                 1.3764
 IR Inten    --     41.9837                13.2418                18.8223

                     52                     53                     54
                      A                      A                      A
 Frequencies --   1194.0962              1222.7186              1225.9428
 Red. masses --      2.3537                 2.2612                 2.0906
 Frc consts  --      1.9773                 1.9918                 1.8512
 IR Inten    --     37.5630                99.8482               104.5031

                     55                     56                     57
                      A                      A                      A
 Frequencies --   1234.7103              1237.7712              1272.3732
 Red. masses --      2.0678                 2.1826                 1.3310
 Frc consts  --      1.8574                 1.9701                 1.2696
 IR Inten    --     46.0962                20.0570                16.8777

                     58                     59                     60
                      A                      A                      A
 Frequencies --   1284.5008              1305.7299              1320.4957
 Red. masses --      1.2996                 1.6593                 1.3160
 Frc consts  --      1.2633                 1.6668                 1.3520
 IR Inten    --      3.8892                47.7351                 8.1337

                     61                     62                     63
                      A                      A                      A
 Frequencies --   1325.5245              1346.9261              1362.3563
 Red. masses --      1.3811                 1.2880                 1.3315
 Frc consts  --      1.4297                 1.3767                 1.4561
 IR Inten    --      7.1296                41.2525                19.5249

                     64                     65                     66
                      A                      A                      A
 Frequencies --   1368.4444              1385.1610              1399.0302
 Red. masses --      1.3704                 1.2811                 1.3605
 Frc consts  --      1.5120                 1.4482                 1.5690
 IR Inten    --      1.9440                 8.6694                44.9008

                     67                     68                     69
                      A                      A                      A
 Frequencies --   1404.6254              1433.2278              1439.8548
 Red. masses --      1.7523                 1.6818                 1.0981
 Frc consts  --      2.0370                 2.0354                 1.3413
 IR Inten    --     17.6831                23.9130                48.8056

                     70                     71                     72
                      A                      A                      A
 Frequencies --   1451.1644              1455.8301              1473.1331
 Red. masses --      1.2180                 1.5318                 1.1261
 Frc consts  --      1.5112                 1.9128                 1.4399
 IR Inten    --     76.0189                 2.5867                 4.3872

                     73                     74                     75
                      A                      A                      A
 Frequencies --   1478.1880              1479.5763              1487.2246
 Red. masses --      1.2094                 1.1715                 1.0412
 Frc consts  --      1.5570                 1.5111                 1.3569
 IR Inten    --      1.0326                 4.6853                13.3848

                     76                     77                     78
                      A                      A                      A
 Frequencies --   1489.7433              1491.3946              1492.6515
 Red. masses --      1.0452                 1.0752                 1.0491
 Frc consts  --      1.3667                 1.4091                 1.3772
 IR Inten    --     27.6276                12.3903                 0.3051

                     79                     80                     81
                      A                      A                      A
 Frequencies --   1499.8264              1500.4202              1511.0400
 Red. masses --      1.0628                 1.0698                 1.1188
 Frc consts  --      1.4085                 1.4190                 1.5051
 IR Inten    --     16.6744                11.6716                15.5404

                     82                     83                     84
                      A                      A                      A
 Frequencies --   1514.1950              1625.5503              2974.0764
 Red. masses --      3.6690                 5.5590                 1.0578
 Frc consts  --      4.9563                 8.6547                 5.5125
 IR Inten    --    296.1411               279.9153                38.5215

                     85                     86                     87
                      A                      A                      A
 Frequencies --   3010.0391              3015.4084              3019.3375
 Red. masses --      1.0387                 1.0994                 1.0364
 Frc consts  --      5.5449                 5.8895                 5.5670
 IR Inten    --     50.1496                33.4569                25.1271

                     88                     89                     90
                      A                      A                      A
 Frequencies --   3026.1958              3031.6687              3044.0213
 Red. masses --      1.0402                 1.0793                 1.0843
 Frc consts  --      5.6128                 5.8449                 5.9194
 IR Inten    --     29.7825                12.4616                13.1833

                     91                     92                     93
                      A                      A                      A
 Frequencies --   3067.3632              3073.4404              3086.0100
 Red. masses --      1.0418                 1.1058                 1.0851
 Frc consts  --      5.7754                 6.1543                 6.0883
 IR Inten    --     18.7585                35.5409                 2.9161

                     94                     95                     96
                      A                      A                      A
 Frequencies --   3089.7649              3097.5076              3151.6085
 Red. masses --      1.1055                 1.1063                 1.0921
 Frc consts  --      6.2180                 6.2538                 6.3914
 IR Inten    --     26.1987                24.1362                 3.4919

                     97                     98                     99
                      A                      A                      A
 Frequencies --   3159.0284              3168.5279              3175.3598
 Red. masses --      1.0895                 1.0991                 1.1009
 Frc consts  --      6.4057                 6.5013                 6.5400
 IR Inten    --      0.9400                 8.9797                 6.5266

                    100                    101                    102
                      A                      A                      A
 Frequencies --   3176.8654              3188.2659              3206.1215
 Red. masses --      1.1002                 1.0926                 1.1069
 Frc consts  --      6.5423                 6.5436                 6.7036
 IR Inten    --      3.5108                 1.4422                 2.3602

 - Thermochemistry -
 -------------------
 Temperature   298.150 Kelvin.  Pressure   1.00000 Atm.
 Atom     1 has atomic number  6 and mass  12.00000

 Molecular mass:   247.11816 amu.
 Principal axes and moments of inertia in atomic units:
                           1         2         3
     Eigenvalues --  2889.406994738.340936120.86464
           X            0.99967   0.02572  -0.00217
           Y           -0.02570   0.99961   0.01053
           Z            0.00244  -0.01047   0.99994
 This molecule is an asymmetric top.
 Rotational symmetry number  1.
 Warning -- assumption of classical behavior for rotation
           may cause significant error
 Rotational temperatures (Kelvin)      0.02998     0.01828     0.01415
 Rotational constants (GHZ):           0.62461     0.38088     0.29485
 Zero-point vibrational energy     804021.5 (Joules/Mol)
                                  192.16576 (Kcal/Mol)
 Warning -- explicit consideration of  27 degrees of freedom as
           vibrations may cause significant error
 Vibrational temperatures:     73.07    85.58   114.83   125.41   129.16
          (Kelvin)            140.84   146.62   161.97   230.11   249.57
                              254.36   290.01   322.55   331.96   391.54
                              401.39   423.90   448.00   489.90   495.55
                              520.10   562.58   622.10   714.29   740.95
                              812.50   889.36   936.02  1007.38  1070.11
                             1111.34  1180.72  1231.01  1301.21  1376.39
                             1399.27  1440.83  1453.10  1468.17  1495.64
                             1506.36  1514.31  1546.03  1578.41  1636.46
                             1648.60  1676.54  1686.49  1695.40  1697.00
                             1702.04  1718.04  1759.22  1763.86  1776.47
                             1780.87  1830.66  1848.11  1878.65  1899.90
                             1907.13  1937.92  1960.12  1968.88  1992.94
                             2012.89  2020.94  2062.09  2071.63  2087.90
                             2094.61  2119.51  2126.78  2128.78  2139.78
                             2143.41  2145.78  2147.59  2157.91  2158.77
                             2174.05  2178.59  2338.80  4279.03  4330.77
                             4338.49  4344.15  4354.02  4361.89  4379.66
                             4413.25  4421.99  4440.07  4445.48  4456.62
                             4534.46  4545.13  4558.80  4568.63  4570.80
                             4587.20  4612.89

 Zero-point correction=                           0.306236 (Hartree/Particle)
 Thermal correction to Energy=                    0.324156
 Thermal correction to Enthalpy=                  0.325100
 Thermal correction to Gibbs Free Energy=         0.260427
 Sum of electronic and zero-point Energies=           -880.621272
 Sum of electronic and thermal Energies=              -880.603352
 Sum of electronic and thermal Enthalpies=            -880.602408
 Sum of electronic and thermal Free Energies=         -880.667081

                     E (Thermal)             CV                S
                      KCal/Mol        Cal/Mol-Kelvin    Cal/Mol-Kelvin
 Total                  203.411             65.288            136.117
 Electronic               0.000              0.000              0.000
 Translational            0.889              2.981             42.415
 Rotational               0.889              2.981             32.794
 Vibrational            201.634             59.327             60.909
 Vibration     1          0.595              1.977              4.787
 Vibration     2          0.597              1.974              4.474
 Vibration     3          0.600              1.963              3.896
 Vibration     4          0.601              1.958              3.723
 Vibration     5          0.602              1.956              3.665
 Vibration     6          0.603              1.951              3.496
 Vibration     7          0.604              1.948              3.418
 Vibration     8          0.607              1.939              3.224
 Vibration     9          0.622              1.891              2.551
 Vibration    10          0.627              1.875              2.398
 Vibration    11          0.628              1.871              2.362
 Vibration    12          0.638              1.838              2.119
 Vibration    13          0.649              1.804              1.925
 Vibration    14          0.652              1.794              1.873
 Vibration    15          0.675              1.725              1.583
 Vibration    16          0.679              1.712              1.540
 Vibration    17          0.689              1.684              1.447
 Vibration    18          0.700              1.652              1.355
 Vibration    19          0.720              1.595              1.210
 Vibration    20          0.723              1.587              1.192
 Vibration    21          0.736              1.552              1.116
 Vibration    22          0.759              1.489              0.996
 Vibration    23          0.793              1.400              0.851
 Vibration    24          0.852              1.258              0.667
 Vibration    25          0.870              1.217              0.622
 Vibration    26          0.921              1.108              0.514
 Vibration    27          0.978              0.994              0.419

 Normal termination of Gaussian 09 at Tue Oct 24 14:40:29 2017.
