 Gaussian 09, Revision D.01,
 Gaussian 09:  EM64L-G09RevD.01 24-Apr-2013

 -------------------------------------------------------------------
 #P PBE1PBE/6-311+G(d,p) opt optcyc=999 freq EmpiricalDispersion=GD3
 -------------------------------------------------------------------

 -------
 disacch
 -------
 Symbolic Z-matrix:
 Charge =  1 Multiplicity = 1

 SCF Done:  E(RPBE1PBE) =  -880.915697439     A.U. after   15 cycles
 SCF Done:  E(RPBE1PBE) =  -880.919585970     A.U. after   13 cycles
 SCF Done:  E(RPBE1PBE) =  -880.919547849     A.U. after   14 cycles
 SCF Done:  E(RPBE1PBE) =  -880.920413855     A.U. after   13 cycles
 SCF Done:  E(RPBE1PBE) =  -880.920930604     A.U. after   14 cycles
 SCF Done:  E(RPBE1PBE) =  -880.921169136     A.U. after   14 cycles
 SCF Done:  E(RPBE1PBE) =  -880.921209822     A.U. after   14 cycles
 SCF Done:  E(RPBE1PBE) =  -880.921260609     A.U. after   12 cycles
 SCF Done:  E(RPBE1PBE) =  -880.921336389     A.U. after   16 cycles
 SCF Done:  E(RPBE1PBE) =  -880.921346938     A.U. after   13 cycles
 SCF Done:  E(RPBE1PBE) =  -880.921359625     A.U. after   11 cycles
 SCF Done:  E(RPBE1PBE) =  -880.921363777     A.U. after   10 cycles
 SCF Done:  E(RPBE1PBE) =  -880.921373462     A.U. after   11 cycles
 SCF Done:  E(RPBE1PBE) =  -880.921383008     A.U. after   11 cycles
 SCF Done:  E(RPBE1PBE) =  -880.921386210     A.U. after   10 cycles
 SCF Done:  E(RPBE1PBE) =  -880.921387717     A.U. after   14 cycles
 SCF Done:  E(RPBE1PBE) =  -880.921388654     A.U. after   12 cycles
 SCF Done:  E(RPBE1PBE) =  -880.921388914     A.U. after   11 cycles
 SCF Done:  E(RPBE1PBE) =  -880.921388997     A.U. after    7 cycles
 Optimization completed.
    -- Stationary point found.
 Normal termination of Gaussian 09 at Mon Jan  9 23:07:44 2017.

 ----------------------------------------------------------------------
 #P Geom=AllCheck Guess=TCheck SCRF=Check GenChk RPBE1PBE/6-311+G(d,p)
 Freq
 ----------------------------------------------------------------------

 Structure from the checkpoint file:  "Ac-4_cGalMe.chk"
 -------
 disacch
 -------
 Charge =  1 Multiplicity = 1

                         Standard orientation:
 ---------------------------------------------------------------------
 Center     Atomic      Atomic             Coordinates (Angstroms)
 Number     Number       Type             X           Y           Z
 ---------------------------------------------------------------------
      1          6           0       -0.545195   -2.226898   -0.145722
      2          6           0       -0.191596   -1.304949   -1.314718
      3          6           0        0.679579   -0.120254   -0.920348
      4          6           0        0.054764    0.698762    0.223975
      5          6           0       -1.466281    0.842214    0.015516
      6          6           0       -2.084059   -0.407955   -0.603231
      7          8           0       -1.473848   -0.829831   -1.733372
      8          8           0        0.313178    0.059979    1.455835
      9          8           0        1.929569   -0.694545   -0.584783
     10          8           0       -1.825157   -1.633051    0.295850
     11          1           0        0.165782   -2.171680    0.676881
     12          1           0       -0.773460   -3.246904   -0.448940
     13          1           0        0.251196   -1.851551   -2.145705
     14          1           0        0.777565    0.535660   -1.791240
     15          1           0        0.501110    1.695731    0.211527
     16          1           0       -1.929743    1.032698    0.996250
     17          1           0       -3.163355   -0.346141   -0.738474
     18          8           0       -1.797455    1.832086   -0.910087
     19          6           0       -2.203853   -1.687098    1.701267
     20          1           0       -3.190163   -1.230500    1.767631
     21          1           0       -2.262541   -2.743045    1.960364
     22          1           0       -1.457401   -1.154016    2.286755
     23          6           0       -1.877846    3.141978   -0.366229
     24          1           0       -2.665076    3.200562    0.395276
     25          1           0       -0.922655    3.458876    0.068413
     26          1           0       -2.126213    3.804220   -1.193939
     27          6           0        0.686106    0.957611    2.494595
     28          1           0        1.592374    1.507833    2.221389
     29          1           0       -0.118072    1.671037    2.715657
     30          1           0        0.881191    0.354626    3.381595
     31          6           0        2.953733    0.170329   -0.338148
     32          8           0        2.801114    1.359351   -0.380640
     33          6           0        4.212404   -0.564444   -0.024112
     34          1           0        4.478929   -1.218773   -0.857518
     35          1           0        4.063092   -1.196450    0.854866
     36          1           0        5.011703    0.150129    0.159721
 ---------------------------------------------------------------------

 SCF Done:  E(RPBE1PBE) =  -880.921388997     A.U. after    6 cycles

 The electronic state is 1-A.
 Alpha  occ. eigenvalues --  -19.49233 -19.40641 -19.38082 -19.35954 -19.35707
 Alpha  occ. eigenvalues --  -19.31376 -10.51908 -10.47497 -10.46175 -10.45478
 Alpha  occ. eigenvalues --  -10.45403 -10.44009 -10.43299 -10.42519 -10.39247
 Alpha  occ. eigenvalues --  -10.38660 -10.33590  -1.35567  -1.27546  -1.26727
 Alpha  occ. eigenvalues --   -1.22671  -1.21575  -1.18031  -1.00586  -0.97919
 Alpha  occ. eigenvalues --   -0.95117  -0.90333  -0.87780  -0.86420  -0.83371
 Alpha  occ. eigenvalues --   -0.82052  -0.81593  -0.76436  -0.74986  -0.73118
 Alpha  occ. eigenvalues --   -0.70989  -0.68300  -0.67471  -0.66812  -0.65824
 Alpha  occ. eigenvalues --   -0.65210  -0.63257  -0.62887  -0.62445  -0.61951
 Alpha  occ. eigenvalues --   -0.60760  -0.59892  -0.59630  -0.59157  -0.58209
 Alpha  occ. eigenvalues --   -0.56691  -0.55898  -0.55205  -0.54123  -0.53033
 Alpha  occ. eigenvalues --   -0.52369  -0.51313  -0.50835  -0.50092  -0.48757
 Alpha  occ. eigenvalues --   -0.47805  -0.46772  -0.44636  -0.44070  -0.41503
 Alpha  occ. eigenvalues --   -0.40413
 Alpha virt. eigenvalues --   -0.13721  -0.12035  -0.11260  -0.10548  -0.09973
 Alpha virt. eigenvalues --   -0.09443  -0.09065  -0.07732  -0.07200  -0.06804
 Alpha virt. eigenvalues --   -0.06533  -0.05907  -0.05626  -0.04693  -0.04134

 Mulliken charges:
               1
     1  C   -0.090336
     2  C   -0.634165
     3  C   -0.673253
     4  C   -0.303135
     5  C   -0.425510
     6  C   -0.411325
     7  O    0.101385
     8  O    0.043930
     9  O    0.206206
    10  O    0.119394
    11  H    0.277028
    12  H    0.256044
    13  H    0.276622
    14  H    0.282866
    15  H    0.257929
    16  H    0.205610
    17  H    0.285530
    18  O    0.015247
    19  C   -0.313621
    20  H    0.223336
    21  H    0.224641
    22  H    0.259714
    23  C   -0.265125
    24  H    0.175667
    25  H    0.179604
    26  H    0.203531
    27  C   -0.246776
    28  H    0.204121
    29  H    0.182356
    30  H    0.192579
    31  C    0.344410
    32  O   -0.185639
    33  C   -0.604750
    34  H    0.210435
    35  H    0.204269
    36  H    0.221181
 Sum of Mulliken charges =   1.00000

 Dipole moment (field-independent basis, Debye):
    X=             -3.8669    Y=             -3.9495    Z=              3.8188  Tot=              6.7183
 Quadrupole moment (field-independent basis, Debye-Ang):
   XX=            -70.7429   YY=            -77.4584   ZZ=            -87.9204
   XY=             -2.9020   XZ=             -7.1984   YZ=              0.7299

  Exact polarizability: 147.875  -3.671 140.550  -0.002  -1.314 125.177
 Approx polarizability: 182.860  -4.198 194.925   1.096  -3.585 178.669

                      1                      2                      3
                      A                      A                      A
 Frequencies --     35.0544                42.1315                59.3934
 Red. masses --      4.7329                 1.2114                 2.8189
 Frc consts  --      0.0034                 0.0013                 0.0059
 IR Inten    --      0.3401                 2.2014                 1.7462

                      4                      5                      6
                      A                      A                      A
 Frequencies --     71.2200                81.1110                92.8873
 Red. masses --      3.5449                 2.4277                 3.2310
 Frc consts  --      0.0106                 0.0094                 0.0164
 IR Inten    --      1.2805                 1.8523                 1.4023

                      7                      8                      9
                      A                      A                      A
 Frequencies --    103.9816               141.6537               164.0059
 Red. masses --      3.2909                 2.3598                 2.7567
 Frc consts  --      0.0210                 0.0279                 0.0437
 IR Inten    --      3.8166                 1.1432                10.4429

                     10                     11                     12
                      A                      A                      A
 Frequencies --    172.2796               176.6955               188.1569
 Red. masses --      1.5584                 1.4008                 1.3830
 Frc consts  --      0.0273                 0.0258                 0.0288
 IR Inten    --      1.1450                 1.2318                 0.0877

                     13                     14                     15
                      A                      A                      A
 Frequencies --    202.5397               234.5978               248.9205
 Red. masses --      2.2574                 2.9518                 4.1221
 Frc consts  --      0.0546                 0.0957                 0.1505
 IR Inten    --      2.7678                 1.2276                 6.2127

                     16                     17                     18
                      A                      A                      A
 Frequencies --    283.7546               294.9520               306.5458
 Red. masses --      3.4310                 4.8889                 3.4288
 Frc consts  --      0.1628                 0.2506                 0.1898
 IR Inten    --      3.8049                12.1319                 7.4869

                     19                     20                     21
                      A                      A                      A
 Frequencies --    340.4198               372.6461               388.4938
 Red. masses --      3.2949                 4.9300                 4.8792
 Frc consts  --      0.2250                 0.4034                 0.4339
 IR Inten    --      4.7697                11.9437                 3.4256

                     22                     23                     24
                      A                      A                      A
 Frequencies --    433.7076               491.6714               506.8167
 Red. masses --      3.6019                 5.0013                 4.7108
 Frc consts  --      0.3992                 0.7123                 0.7129
 IR Inten    --      2.8130                24.0755                15.2851

                     25                     26                     27
                      A                      A                      A
 Frequencies --    512.7527               554.4638               601.6648
 Red. masses --      4.2440                 5.1199                 2.6793
 Frc consts  --      0.6574                 0.9274                 0.5715
 IR Inten    --      3.6383                 7.4875                 8.4141

                     28                     29                     30
                      A                      A                      A
 Frequencies --    644.7429               681.4221               741.6405
 Red. masses --      5.9123                 5.0760                 5.0468
 Frc consts  --      1.4480                 1.3887                 1.6355
 IR Inten    --     29.3191                18.2494                65.4871

                     31                     32                     33
                      A                      A                      A
 Frequencies --    746.5754               812.4572               865.3356
 Red. masses --      4.9054                 3.7867                 3.6069
 Frc consts  --      1.6109                 1.4727                 1.5913
 IR Inten    --     64.3462                 4.2860                24.9155

                     34                     35                     36
                      A                      A                      A
 Frequencies --    895.9509               917.1742               936.7665
 Red. masses --      3.4443                 3.7758                 3.3136
 Frc consts  --      1.6290                 1.8714                 1.7132
 IR Inten    --      9.1850                29.9653                34.2866

                     37                     38                     39
                      A                      A                      A
 Frequencies --    968.3223              1003.9274              1010.5403
 Red. masses --      2.7100                 2.7029                 2.3200
 Frc consts  --      1.4971                 1.6050                 1.3959
 IR Inten    --      7.1036                 6.6629                10.1951

                     40                     41                     42
                      A                      A                      A
 Frequencies --   1037.6302              1044.7361              1062.6569
 Red. masses --      2.3909                 4.4011                 1.8647
 Frc consts  --      1.5167                 2.8303                 1.2406
 IR Inten    --     54.0711                16.4508                10.1133

                     43                     44                     45
                      A                      A                      A
 Frequencies --   1066.5313              1076.1882              1103.3029
 Red. masses --      4.2057                 2.3412                 2.0864
 Frc consts  --      2.8186                 1.5976                 1.4964
 IR Inten    --     42.7570                13.7691                90.3436

                     46                     47                     48
                      A                      A                      A
 Frequencies --   1129.9543              1139.5398              1164.3801
 Red. masses --      4.6487                 3.1228                 1.4113
 Frc consts  --      3.4971                 2.3892                 1.1274
 IR Inten    --     75.8651               130.4381                36.4252

                     49                     50                     51
                      A                      A                      A
 Frequencies --   1166.9175              1176.4201              1178.6608
 Red. masses --      2.0046                 1.3411                 1.3078
 Frc consts  --      1.6082                 1.0935                 1.0705
 IR Inten    --     72.3654                17.8812                 3.8062

                     52                     53                     54
                      A                      A                      A
 Frequencies --   1188.8251              1199.6997              1214.7852
 Red. masses --      1.8269                 1.6093                 1.5981
 Frc consts  --      1.5213                 1.3647                 1.3895
 IR Inten    --     19.1771                37.0125                 2.8563

                     55                     56                     57
                      A                      A                      A
 Frequencies --   1218.0919              1232.0903              1245.8531
 Red. masses --      1.8168                 1.5341                 2.1831
 Frc consts  --      1.5883                 1.3721                 1.9964
 IR Inten    --     52.3672                69.4067               221.3989

                     58                     59                     60
                      A                      A                      A
 Frequencies --   1253.9972              1263.5495              1277.9416
 Red. masses --      1.8216                 1.7085                 1.6776
 Frc consts  --      1.6877                 1.6071                 1.6142
 IR Inten    --    144.7808                59.1348                31.0933

                     61                     62                     63
                      A                      A                      A
 Frequencies --   1311.8773              1342.5217              1349.4239
 Red. masses --      1.2982                 1.2393                 1.3038
 Frc consts  --      1.3164                 1.3160                 1.3988
 IR Inten    --     18.7163                 6.4617                 2.0240

                     64                     65                     66
                      A                      A                      A
 Frequencies --   1371.9599              1383.3605              1392.8876
 Red. masses --      1.5231                 1.5795                 1.4847
 Frc consts  --      1.6891                 1.7809                 1.6972
 IR Inten    --      1.3696                 2.5123                24.3370

                     67                     68                     69
                      A                      A                      A
 Frequencies --   1400.2015              1406.4326              1415.2617
 Red. masses --      1.3553                 1.5168                 1.7177
 Frc consts  --      1.5655                 1.7677                 2.0270
 IR Inten    --     45.8497                59.6091                 0.6534

                     70                     71                     72
                      A                      A                      A
 Frequencies --   1437.8304              1452.8036              1461.0454
 Red. masses --      1.6171                 1.1439                 1.0479
 Frc consts  --      1.9698                 1.4224                 1.3179
 IR Inten    --      3.4366                 3.3778                15.2067

                     73                     74                     75
                      A                      A                      A
 Frequencies --   1467.0871              1468.9075              1474.0134
 Red. masses --      1.0440                 1.0590                 1.1241
 Frc consts  --      1.3239                 1.3463                 1.4390
 IR Inten    --     13.3466                17.7857                 4.2759

                     76                     77                     78
                      A                      A                      A
 Frequencies --   1478.7924              1488.1331              1492.2319
 Red. masses --      1.1558                 1.0415                 1.0488
 Frc consts  --      1.4892                 1.3589                 1.3760
 IR Inten    --      2.7699                14.8886                 9.7768

                     79                     80                     81
                      A                      A                      A
 Frequencies --   1496.2090              1498.0462              1502.0856
 Red. masses --      1.0715                 1.0628                 1.0615
 Frc consts  --      1.4132                 1.4052                 1.4111
 IR Inten    --      5.1950                12.6637                20.8129

                     82                     83                     84
                      A                      A                      A
 Frequencies --   1507.5455              1852.7110              3011.1526
 Red. masses --      1.0613                11.5690                 1.0826
 Frc consts  --      1.4211                23.3971                 5.7833
 IR Inten    --     17.4747               221.8377                18.1179

                     85                     86                     87
                      A                      A                      A
 Frequencies --   3022.5226              3024.5952              3075.7991
 Red. masses --      1.0365                 1.0364                 1.0374
 Frc consts  --      5.5793                 5.5864                 5.7823
 IR Inten    --     14.9153                48.4580                 1.0464

                     88                     89                     90
                      A                      A                      A
 Frequencies --   3090.5237              3094.3638              3096.1842
 Red. masses --      1.0270                 1.1025                 1.0889
 Frc consts  --      5.7796                 6.2200                 6.1505
 IR Inten    --      7.6888                16.9891                10.2386

                     91                     92                     93
                      A                      A                      A
 Frequencies --   3101.6088              3109.5411              3127.3846
 Red. masses --      1.1018                 1.0879                 1.0568
 Frc consts  --      6.2451                 6.1974                 6.0900
 IR Inten    --     17.5040                 3.6756                 3.4705

                     94                     95                     96
                      A                      A                      A
 Frequencies --   3148.9147              3162.3911              3163.1962
 Red. masses --      1.0998                 1.1029                 1.0894
 Frc consts  --      6.4253                 6.4984                 6.4225
 IR Inten    --      0.4204                 8.0085                 0.7895

                     97                     98                     99
                      A                      A                      A
 Frequencies --   3170.8407              3177.3718              3198.9769
 Red. masses --      1.0939                 1.1004                 1.1040
 Frc consts  --      6.4798                 6.5454                 6.6562
 IR Inten    --      1.4959                 4.2884                 0.6928

                    100                    101                    102
                      A                      A                      A
 Frequencies --   3203.1296              3211.1754              3213.7364
 Red. masses --      1.1100                 1.1159                 1.1119
 Frc consts  --      6.7103                 6.7795                 6.7663
 IR Inten    --      0.0261                 1.2834                 4.8283

 - Thermochemistry -
 -------------------
 Temperature   298.150 Kelvin.  Pressure   1.00000 Atm.
 Atom     1 has atomic number  6 and mass  12.00000

 Molecular mass:   247.11816 amu.
 Principal axes and moments of inertia in atomic units:
                           1         2         3
     Eigenvalues --  2818.630554467.559625130.14765
           X            0.99956  -0.02785  -0.00980
           Y            0.02789   0.99960   0.00408
           Z            0.00968  -0.00435   0.99994
 This molecule is an asymmetric top.
 Rotational symmetry number  1.
 Warning -- assumption of classical behavior for rotation
           may cause significant error
 Rotational temperatures (Kelvin)      0.03073     0.01939     0.01688
 Rotational constants (GHZ):           0.64029     0.40397     0.35179
 Zero-point vibrational energy     805229.7 (Joules/Mol)
                                  192.45453 (Kcal/Mol)
 Warning -- explicit consideration of  27 degrees of freedom as
           vibrations may cause significant error
 Vibrational temperatures:     50.44    60.62    85.45   102.47   116.70
          (Kelvin)            133.64   149.61   203.81   235.97   247.87
                              254.23   270.72   291.41   337.53   358.14
                              408.26   424.37   441.05   489.79   536.15
                              558.96   624.01   707.40   729.20   737.74
                              797.75   865.66   927.64   980.41  1067.05
                             1074.15  1168.94  1245.02  1289.07  1319.61
                             1347.80  1393.20  1444.43  1453.94  1492.92
                             1503.14  1528.92  1534.50  1548.39  1587.40
                             1625.75  1639.54  1675.28  1678.93  1692.60
                             1695.83  1710.45  1726.10  1747.80  1752.56
                             1772.70  1792.50  1804.22  1817.96  1838.67
                             1887.50  1931.59  1941.52  1973.94  1990.34
                             2004.05  2014.58  2023.54  2036.24  2068.71
                             2090.26  2102.12  2110.81  2113.43  2120.77
                             2127.65  2141.09  2146.99  2152.71  2155.35
                             2161.16  2169.02  2665.63  4332.37  4348.73
                             4351.71  4425.38  4446.57  4452.09  4454.71
                             4462.52  4473.93  4499.60  4530.58  4549.97
                             4551.13  4562.13  4571.52  4602.61  4608.58
                             4620.16  4623.84

 Zero-point correction=                           0.306696 (Hartree/Particle)
 Thermal correction to Energy=                    0.324732
 Thermal correction to Enthalpy=                  0.325676
 Thermal correction to Gibbs Free Energy=         0.260048
 Sum of electronic and zero-point Energies=           -880.614693
 Sum of electronic and thermal Energies=              -880.596657
 Sum of electronic and thermal Enthalpies=            -880.595713
 Sum of electronic and thermal Free Energies=         -880.661341

                     E (Thermal)             CV                S
                      KCal/Mol        Cal/Mol-Kelvin    Cal/Mol-Kelvin
 Total                  203.772             65.582            138.126
 Electronic               0.000              0.000              0.000
 Translational            0.889              2.981             42.415
 Rotational               0.889              2.981             32.535
 Vibrational            201.995             59.621             63.176
 Vibration     1          0.594              1.982              5.521
 Vibration     2          0.595              1.980              5.156
 Vibration     3          0.597              1.974              4.477
 Vibration     4          0.598              1.968              4.119
 Vibration     5          0.600              1.962              3.864
 Vibration     6          0.602              1.954              3.598
 Vibration     7          0.605              1.946              3.378
 Vibration     8          0.615              1.912              2.781
 Vibration     9          0.623              1.887              2.503
 Vibration    10          0.626              1.877              2.410
 Vibration    11          0.628              1.871              2.363
 Vibration    12          0.633              1.856              2.246
 Vibration    13          0.639              1.836              2.110
 Vibration    14          0.654              1.788              1.843
 Vibration    15          0.662              1.765              1.738
 Vibration    16          0.682              1.704              1.511
 Vibration    17          0.689              1.683              1.445
 Vibration    18          0.697              1.661              1.381
 Vibration    19          0.720              1.595              1.210
 Vibration    20          0.744              1.528              1.069
 Vibration    21          0.757              1.495              1.006
 Vibration    22          0.794              1.397              0.847
 Vibration    23          0.847              1.269              0.679
 Vibration    24          0.862              1.235              0.641
 Vibration    25          0.868              1.222              0.627
 Vibration    26          0.910              1.130              0.535
 Vibration    27          0.960              1.028              0.447

 Optimization completed.
    -- Stationary point found.
 Normal termination of Gaussian 09 at Mon Jan  9 23:29:26 2017.
