 Gaussian 09, Revision D.01,
 Gaussian 09:  EM64L-G09RevD.01 24-Apr-2013

 -------------------------------------------------------------------
 #P PBE1PBE/6-311+G(d,p) opt optcyc=999 freq EmpiricalDispersion=GD3
 -------------------------------------------------------------------

 -------
 disacch
 -------
 Symbolic Z-matrix:
 Charge =  1 Multiplicity = 1

 SCF Done:  E(RPBE1PBE) =  -880.904767485     A.U. after   18 cycles
 SCF Done:  E(RPBE1PBE) =  -880.908554796     A.U. after   19 cycles
 SCF Done:  E(RPBE1PBE) =  -880.908783631     A.U. after   18 cycles
 SCF Done:  E(RPBE1PBE) =  -880.908690210     A.U. after   17 cycles
 SCF Done:  E(RPBE1PBE) =  -880.909102120     A.U. after   14 cycles
 SCF Done:  E(RPBE1PBE) =  -880.909226051     A.U. after   16 cycles
 SCF Done:  E(RPBE1PBE) =  -880.909468406     A.U. after   15 cycles
 SCF Done:  E(RPBE1PBE) =  -880.909561308     A.U. after   16 cycles
 SCF Done:  E(RPBE1PBE) =  -880.909802973     A.U. after   13 cycles
 SCF Done:  E(RPBE1PBE) =  -880.909972009     A.U. after   18 cycles
 SCF Done:  E(RPBE1PBE) =  -880.910163434     A.U. after   11 cycles
 SCF Done:  E(RPBE1PBE) =  -880.910165475     A.U. after   10 cycles
 SCF Done:  E(RPBE1PBE) =  -880.910165751     A.U. after    9 cycles
 SCF Done:  E(RPBE1PBE) =  -880.910165814     A.U. after    8 cycles
 SCF Done:  E(RPBE1PBE) =  -880.910165861     A.U. after   10 cycles
 SCF Done:  E(RPBE1PBE) =  -880.910165891     A.U. after    7 cycles
 SCF Done:  E(RPBE1PBE) =  -880.910165954     A.U. after   11 cycles
 SCF Done:  E(RPBE1PBE) =  -880.910166010     A.U. after    7 cycles
 SCF Done:  E(RPBE1PBE) =  -880.910166029     A.U. after    8 cycles
 Optimization completed.
    -- Stationary point found.
 Normal termination of Gaussian 09 at Tue Jan 10 12:28:03 2017.

 ----------------------------------------------------------------------
 #P Geom=AllCheck Guess=TCheck SCRF=Check GenChk RPBE1PBE/6-311+G(d,p)
 Freq
 ----------------------------------------------------------------------

 Structure from the checkpoint file:  "Ac-4_cGalMe.chk"
 -------
 disacch
 -------
 Charge =  1 Multiplicity = 1

                         Standard orientation:
 ---------------------------------------------------------------------
 Center     Atomic      Atomic             Coordinates (Angstroms)
 Number     Number       Type             X           Y           Z
 ---------------------------------------------------------------------
      1          6           0        2.638832   -0.079353   -0.147418
      2          6           0        1.305399   -0.617738   -0.594642
      3          6           0        0.165347    0.365902   -0.584486
      4          6           0       -1.188594   -0.336960   -0.759313
      5          6           0       -1.366462   -1.306944    0.406694
      6          6           0       -0.131863   -2.073966    0.690405
      7          8           0        1.017757   -1.794403    0.304573
      8          8           0       -2.262111    0.538559   -0.707261
      9          8           0        0.166398    1.062278    0.650946
     10          8           0        3.601538   -1.022419   -0.483887
     11          1           0        2.614931    0.133313    0.931994
     12          1           0        2.791625    0.880762   -0.669594
     13          1           0        1.415738   -1.096663   -1.571127
     14          1           0        0.326631    1.071943   -1.406889
     15          1           0       -1.179617   -0.910869   -1.700300
     16          1           0       -1.495849   -0.681008    1.316052
     17          1           0       -0.210109   -2.989077    1.283439
     18          8           0       -2.378126   -2.237693    0.247926
     19          6           0        4.908204   -0.653992   -0.077883
     20          1           0        5.573630   -1.455611   -0.394510
     21          1           0        5.219930    0.283849   -0.554410
     22          1           0        4.966815   -0.544273    1.012409
     23          6           0       -3.632875   -1.885262    0.839845
     24          1           0       -3.539954   -1.822474    1.929828
     25          1           0       -3.992238   -0.936929    0.434091
     26          1           0       -4.320238   -2.688817    0.582193
     27          6           0       -2.512678    1.253477   -1.914752
     28          1           0       -1.705396    1.958753   -2.135280
     29          1           0       -2.654599    0.559428   -2.751227
     30          1           0       -3.432418    1.812878   -1.751506
     31          6           0       -0.036357    2.425666    0.578720
     32          8           0       -0.089882    2.998595   -0.468560
     33          6           0       -0.173454    3.011533    1.940252
     34          1           0        0.556732    2.581820    2.627742
     35          1           0       -1.172208    2.777223    2.321045
     36          1           0       -0.060990    4.092236    1.881610
 ---------------------------------------------------------------------

 SCF Done:  E(RPBE1PBE) =  -880.910166029     A.U. after    2 cycles

 The electronic state is 1-A.
 Alpha  occ. eigenvalues --  -19.50108 -19.39710 -19.37455 -19.36143 -19.34320
 Alpha  occ. eigenvalues --  -19.32992 -10.54833 -10.49042 -10.47679 -10.46806
 Alpha  occ. eigenvalues --  -10.45288 -10.44923 -10.42383 -10.39201 -10.38447
 Alpha  occ. eigenvalues --  -10.37387 -10.34960  -1.37199  -1.28786  -1.24668
 Alpha  occ. eigenvalues --   -1.22301  -1.21122  -1.19764  -1.02579  -1.00578
 Alpha  occ. eigenvalues --   -0.92449  -0.90388  -0.87448  -0.86777  -0.83008
 Alpha  occ. eigenvalues --   -0.81361  -0.78940  -0.78447  -0.74437  -0.72380
 Alpha  occ. eigenvalues --   -0.71595  -0.69505  -0.68997  -0.66063  -0.64748
 Alpha  occ. eigenvalues --   -0.64576  -0.64230  -0.63412  -0.62729  -0.61713
 Alpha  occ. eigenvalues --   -0.61248  -0.59581  -0.59027  -0.58540  -0.56963
 Alpha  occ. eigenvalues --   -0.56422  -0.54586  -0.54226  -0.53711  -0.53614
 Alpha  occ. eigenvalues --   -0.52674  -0.52091  -0.51367  -0.49391  -0.48250
 Alpha  occ. eigenvalues --   -0.47333  -0.46732  -0.44057  -0.43237  -0.41939
 Alpha  occ. eigenvalues --   -0.40747
 Alpha virt. eigenvalues --   -0.26564  -0.12414  -0.11634  -0.11146  -0.10243
 Alpha virt. eigenvalues --   -0.09358  -0.08685  -0.07413  -0.07339  -0.06757
 Alpha virt. eigenvalues --   -0.06391  -0.06168  -0.05219  -0.04775  -0.04559

 Mulliken charges:
               1
     1  C   -0.400411
     2  C   -1.319875
     3  C    0.148998
     4  C   -0.340999
     5  C   -0.699024
     6  C    0.492926
     7  O    0.224413
     8  O    0.012563
     9  O    0.214893
    10  O   -0.112087
    11  H    0.222665
    12  H    0.210458
    13  H    0.290064
    14  H    0.296002
    15  H    0.224349
    16  H    0.290731
    17  H    0.247937
    18  O   -0.043451
    19  C   -0.299734
    20  H    0.191956
    21  H    0.165221
    22  H    0.163939
    23  C   -0.326819
    24  H    0.171993
    25  H    0.201838
    26  H    0.199480
    27  C   -0.316867
    28  H    0.211857
    29  H    0.180511
    30  H    0.207591
    31  C    0.388548
    32  O   -0.185064
    33  C   -0.561934
    34  H    0.202062
    35  H    0.220493
    36  H    0.224778
 Sum of Mulliken charges =   1.00000

 Dipole moment (field-independent basis, Debye):
    X=             -0.1852    Y=             -2.4832    Z=              2.1347  Tot=              3.2799
 Quadrupole moment (field-independent basis, Debye-Ang):
   XX=            -65.4792   YY=            -87.7978   ZZ=            -84.8556
   XY=              3.5893   XZ=             -0.0190   YZ=              0.2406

  Exact polarizability: 167.029   0.119 144.578  -0.865  -3.913 126.469
 Approx polarizability: 199.103  -3.113 194.808  -3.980  -8.919 185.668

                      1                      2                      3
                      A                      A                      A
 Frequencies --     41.2713                46.4932                56.8833
 Red. masses --      3.8855                 5.0214                 2.8202
 Frc consts  --      0.0039                 0.0064                 0.0054
 IR Inten    --      0.5181                 0.5965                 0.9735

                      4                      5                      6
                      A                      A                      A
 Frequencies --     60.6293                73.4989                80.9879
 Red. masses --      1.8867                 2.8503                 1.9254
 Frc consts  --      0.0041                 0.0091                 0.0074
 IR Inten    --      2.0808                 0.6069                 1.3033

                      7                      8                      9
                      A                      A                      A
 Frequencies --     87.4478                93.9488               110.5113
 Red. masses --      2.1521                 2.1046                 3.4855
 Frc consts  --      0.0097                 0.0109                 0.0251
 IR Inten    --      0.9319                 6.5968                 5.0314

                     10                     11                     12
                      A                      A                      A
 Frequencies --    131.5303               157.7758               168.8975
 Red. masses --      2.1538                 1.6106                 2.4186
 Frc consts  --      0.0220                 0.0236                 0.0406
 IR Inten    --      5.9035                 1.2128                 1.2061

                     13                     14                     15
                      A                      A                      A
 Frequencies --    174.5468               199.5734               225.3502
 Red. masses --      1.5424                 2.1367                 1.5021
 Frc consts  --      0.0277                 0.0501                 0.0449
 IR Inten    --      2.0143                 2.0661                 3.3687

                     16                     17                     18
                      A                      A                      A
 Frequencies --    232.2057               261.3875               272.9182
 Red. masses --      5.9149                 3.5689                 4.2602
 Frc consts  --      0.1879                 0.1437                 0.1870
 IR Inten    --      9.0095                13.5874                 2.7923

                     19                     20                     21
                      A                      A                      A
 Frequencies --    294.3852               319.4567               365.8049
 Red. masses --      5.3822                 6.6170                 3.4530
 Frc consts  --      0.2748                 0.3979                 0.2722
 IR Inten    --      3.2832                 9.1897                 3.3547

                     22                     23                     24
                      A                      A                      A
 Frequencies --    373.9098               390.4149               439.7965
 Red. masses --      3.8427                 3.7196                 3.6216
 Frc consts  --      0.3165                 0.3340                 0.4127
 IR Inten    --      1.2195                 1.4452                 9.1511

                     25                     26                     27
                      A                      A                      A
 Frequencies --    484.5936               506.8200               550.8077
 Red. masses --      4.3297                 3.0864                 3.1636
 Frc consts  --      0.5991                 0.4671                 0.5655
 IR Inten    --      9.5637                 3.6845                 3.0375

                     28                     29                     30
                      A                      A                      A
 Frequencies --    588.5589               628.8337               655.9993
 Red. masses --      2.7162                 6.1908                 4.3496
 Frc consts  --      0.5544                 1.4423                 1.1028
 IR Inten    --      1.7113                20.0311                11.8887

                     31                     32                     33
                      A                      A                      A
 Frequencies --    702.5554               715.0619               779.0251
 Red. masses --      4.0283                 4.3176                 3.9222
 Frc consts  --      1.1715                 1.3007                 1.4024
 IR Inten    --     46.3186                21.6885                15.3937

                     34                     35                     36
                      A                      A                      A
 Frequencies --    839.7804               924.6582               954.7158
 Red. masses --      2.1329                 2.3236                 5.1004
 Frc consts  --      0.8862                 1.1705                 2.7391
 IR Inten    --      3.9936                31.9416                71.1617

                     37                     38                     39
                      A                      A                      A
 Frequencies --    988.4707               994.3532              1001.3381
 Red. masses --      1.8522                 2.6906                 3.3129
 Frc consts  --      1.0663                 1.5674                 1.9572
 IR Inten    --     23.5272                18.7603                42.3374

                     40                     41                     42
                      A                      A                      A
 Frequencies --   1014.5120              1024.1636              1051.7852
 Red. masses --      3.7510                 2.3948                 3.2215
 Frc consts  --      2.2746                 1.4800                 2.0997
 IR Inten    --     34.0548                30.2139                28.9971

                     43                     44                     45
                      A                      A                      A
 Frequencies --   1059.6734              1073.1577              1132.1782
 Red. masses --      1.8761                 2.3176                 2.3948
 Frc consts  --      1.2412                 1.5726                 1.8086
 IR Inten    --     10.5589                 7.9846                54.1095

                     46                     47                     48
                      A                      A                      A
 Frequencies --   1146.9748              1156.6602              1172.0491
 Red. masses --      2.0523                 2.4975                 1.6638
 Frc consts  --      1.5907                 1.9686                 1.3466
 IR Inten    --     49.0788                54.9136                57.9718

                     49                     50                     51
                      A                      A                      A
 Frequencies --   1174.3240              1179.6187              1181.0042
 Red. masses --      1.3089                 1.3941                 1.3670
 Frc consts  --      1.0635                 1.1430                 1.1233
 IR Inten    --      6.4726                35.3134                 2.9090

                     52                     53                     54
                      A                      A                      A
 Frequencies --   1186.2805              1189.5120              1216.7196
 Red. masses --      2.0893                 2.4331                 2.5293
 Frc consts  --      1.7323                 2.0284                 2.2061
 IR Inten    --     11.0110               149.5748               326.1604

                     55                     56                     57
                      A                      A                      A
 Frequencies --   1230.0274              1233.6797              1241.0329
 Red. masses --      2.2866                 2.1526                 2.5826
 Frc consts  --      2.0383                 1.9303                 2.3435
 IR Inten    --    153.3202                 5.2166                57.3349

                     58                     59                     60
                      A                      A                      A
 Frequencies --   1260.7756              1267.4747              1285.7792
 Red. masses --      1.8636                 1.1621                 1.3021
 Frc consts  --      1.7453                 1.0999                 1.2684
 IR Inten    --     92.9514                 6.7572                41.7628

                     61                     62                     63
                      A                      A                      A
 Frequencies --   1316.0685              1329.9881              1341.8175
 Red. masses --      1.5686                 1.4471                 1.2381
 Frc consts  --      1.6008                 1.5081                 1.3134
 IR Inten    --     26.6708                11.5865                26.8398

                     64                     65                     66
                      A                      A                      A
 Frequencies --   1349.4260              1366.3702              1396.9053
 Red. masses --      1.5689                 1.3701                 1.4261
 Frc consts  --      1.6833                 1.5070                 1.6396
 IR Inten    --      2.9332                 6.5592                33.4259

                     67                     68                     69
                      A                      A                      A
 Frequencies --   1401.7001              1409.0425              1443.3657
 Red. masses --      1.4275                 1.5080                 1.6041
 Frc consts  --      1.6524                 1.7640                 1.9689
 IR Inten    --     47.7450                70.4231                17.4232

                     70                     71                     72
                      A                      A                      A
 Frequencies --   1459.5460              1468.8018              1472.6402
 Red. masses --      1.0446                 1.0585                 1.1450
 Frc consts  --      1.3111                 1.3454                 1.4630
 IR Inten    --     11.4916                14.5842                 6.8731

                     73                     74                     75
                      A                      A                      A
 Frequencies --   1476.2449              1476.5824              1486.5571
 Red. masses --      1.1332                 1.1627                 1.0477
 Frc consts  --      1.4550                 1.4936                 1.3641
 IR Inten    --      3.2935                 5.0292                15.7353

                     76                     77                     78
                      A                      A                      A
 Frequencies --   1487.7866              1490.4532              1491.8354
 Red. masses --      1.0412                 1.0696                 1.0960
 Frc consts  --      1.3578                 1.3999                 1.4372
 IR Inten    --     15.6140                14.6335                 3.3804

                     79                     80                     81
                      A                      A                      A
 Frequencies --   1501.5242              1505.1057              1509.1215
 Red. masses --      1.0521                 1.0434                 1.1021
 Frc consts  --      1.3976                 1.3926                 1.4788
 IR Inten    --     11.6394                14.6831                 7.8812

                     82                     83                     84
                      A                      A                      A
 Frequencies --   1675.1761              1873.2814              2921.8649
 Red. masses --      8.0983                11.6987                 1.0753
 Frc consts  --     13.3894                24.1876                 5.4086
 IR Inten    --    233.8740               228.3201                22.5206

                     85                     86                     87
                      A                      A                      A
 Frequencies --   2986.6462              3007.9293              3018.4794
 Red. masses --      1.0611                 1.0838                 1.0360
 Frc consts  --      5.5768                 5.7774                 5.5616
 IR Inten    --     31.8534                13.1456                40.1459

                     88                     89                     90
                      A                      A                      A
 Frequencies --   3034.8928              3035.3354              3043.5268
 Red. masses --      1.0990                 1.0356                 1.0366
 Frc consts  --      5.9640                 5.6215                 5.6572
 IR Inten    --     16.2791                30.1503                28.5326

                     91                     92                     93
                      A                      A                      A
 Frequencies --   3073.7285              3083.2362              3085.8476
 Red. masses --      1.0389                 1.0840                 1.1065
 Frc consts  --      5.7829                 6.0714                 6.2078
 IR Inten    --      2.1674                23.3132                29.0365

                     94                     95                     96
                      A                      A                      A
 Frequencies --   3116.8227              3124.8214              3134.5074
 Red. masses --      1.1057                 1.0869                 1.1018
 Frc consts  --      6.3287                 6.2529                 6.3782
 IR Inten    --     12.2705                 1.6268                 8.5358

                     97                     98                     99
                      A                      A                      A
 Frequencies --   3151.0183              3156.3974              3174.1114
 Red. masses --      1.0974                 1.0947                 1.1000
 Frc consts  --      6.4199                 6.4261                 6.5296
 IR Inten    --      0.8595                 2.5818                 7.0270

                    100                    101                    102
                      A                      A                      A
 Frequencies --   3176.7437              3188.3798              3198.4810
 Red. masses --      1.1017                 1.1049                 1.1047
 Frc consts  --      6.5508                 6.6177                 6.6588
 IR Inten    --      4.0792                 2.9478                 0.1859

 - Thermochemistry -
 -------------------
 Temperature   298.150 Kelvin.  Pressure   1.00000 Atm.
 Atom     1 has atomic number  6 and mass  12.00000

 Molecular mass:   247.11816 amu.
 Principal axes and moments of inertia in atomic units:
                           1         2         3
     Eigenvalues --  3233.869785136.550846951.90996
           X            0.99997   0.00682   0.00201
           Y           -0.00683   0.99996   0.00584
           Z           -0.00197  -0.00585   0.99998
 This molecule is an asymmetric top.
 Rotational symmetry number  1.
 Warning -- assumption of classical behavior for rotation
           may cause significant error
 Rotational temperatures (Kelvin)      0.02678     0.01686     0.01246
 Rotational constants (GHZ):           0.55807     0.35135     0.25960
 Zero-point vibrational energy     794886.8 (Joules/Mol)
                                  189.98250 (Kcal/Mol)
 Warning -- explicit consideration of  28 degrees of freedom as
           vibrations may cause significant error
 Vibrational temperatures:     59.38    66.89    81.84    87.23   105.75
          (Kelvin)            116.52   125.82   135.17   159.00   189.24
                              227.00   243.01   251.13   287.14   324.23
                              334.09   376.08   392.67   423.55   459.63
                              526.31   537.97   561.72   632.77   697.22
                              729.20   792.49   846.80   904.75   943.84
                             1010.82  1028.81  1120.84  1208.26  1330.38
                             1373.62  1422.19  1430.65  1440.70  1459.65
                             1473.54  1513.28  1524.63  1544.03  1628.95
                             1650.24  1664.17  1686.32  1689.59  1697.21
                             1699.20  1706.79  1711.44  1750.59  1769.73
                             1774.99  1785.57  1813.97  1823.61  1849.95
                             1893.53  1913.55  1930.57  1941.52  1965.90
                             2009.83  2016.73  2027.30  2076.68  2099.96
                             2113.28  2118.80  2123.98  2124.47  2138.82
                             2140.59  2144.43  2146.42  2160.36  2165.51
                             2171.29  2410.20  2695.23  4203.91  4297.11
                             4327.73  4342.91  4366.53  4367.17  4378.95
                             4422.40  4436.08  4439.84  4484.41  4495.92
                             4509.85  4533.61  4541.35  4566.83  4570.62
                             4587.36  4601.90

 Zero-point correction=                           0.302756 (Hartree/Particle)
 Thermal correction to Energy=                    0.322060
 Thermal correction to Enthalpy=                  0.323004
 Thermal correction to Gibbs Free Energy=         0.253910
 Sum of electronic and zero-point Energies=           -880.607410
 Sum of electronic and thermal Energies=              -880.588106
 Sum of electronic and thermal Enthalpies=            -880.587162
 Sum of electronic and thermal Free Energies=         -880.656256

                     E (Thermal)             CV                S
                      KCal/Mol        Cal/Mol-Kelvin    Cal/Mol-Kelvin
 Total                  202.096             67.919            145.421
 Electronic               0.000              0.000              0.000
 Translational            0.889              2.981             42.415
 Rotational               0.889              2.981             33.112
 Vibrational            200.318             61.957             69.894
 Vibration     1          0.594              1.981              5.197
 Vibration     2          0.595              1.979              4.961
 Vibration     3          0.596              1.975              4.563
 Vibration     4          0.597              1.973              4.437
 Vibration     5          0.599              1.967              4.057
 Vibration     6          0.600              1.962              3.867
 Vibration     7          0.601              1.958              3.716
 Vibration     8          0.603              1.954              3.576
 Vibration     9          0.606              1.941              3.260
 Vibration    10          0.612              1.922              2.924
 Vibration    11          0.621              1.894              2.576
 Vibration    12          0.625              1.881              2.448
 Vibration    13          0.627              1.874              2.386
 Vibration    14          0.638              1.840              2.137
 Vibration    15          0.650              1.802              1.916
 Vibration    16          0.653              1.792              1.862
 Vibration    17          0.669              1.743              1.652
 Vibration    18          0.676              1.723              1.578
 Vibration    19          0.689              1.684              1.449
 Vibration    20          0.705              1.636              1.313
 Vibration    21          0.739              1.543              1.097
 Vibration    22          0.745              1.526              1.064
 Vibration    23          0.758              1.491              0.999
 Vibration    24          0.800              1.383              0.827
 Vibration    25          0.841              1.284              0.698
 Vibration    26          0.862              1.235              0.641
 Vibration    27          0.906              1.138              0.543
 Vibration    28          0.946              1.056              0.470

 Optimization completed.
    -- Stationary point found.
 Normal termination of Gaussian 09 at Tue Jan 10 12:54:15 2017.
