 Gaussian 09, Revision D.01,
 Gaussian 09:  EM64L-G09RevD.01 24-Apr-2013

 -------------------------------------------------------------------
 #P PBE1PBE/6-311+G(d,p) opt optcyc=999 freq EmpiricalDispersion=GD3
 -------------------------------------------------------------------

 -------
 disacch
 -------
 Symbolic Z-matrix:
 Charge =  1 Multiplicity = 1

 SCF Done:  E(RPBE1PBE) =  -880.925318921     A.U. after   13 cycles
 SCF Done:  E(RPBE1PBE) =  -880.929565600     A.U. after   18 cycles
 SCF Done:  E(RPBE1PBE) =  -880.930132779     A.U. after   16 cycles
 SCF Done:  E(RPBE1PBE) =  -880.930398806     A.U. after   17 cycles
 SCF Done:  E(RPBE1PBE) =  -880.930492666     A.U. after   11 cycles
 SCF Done:  E(RPBE1PBE) =  -880.930517825     A.U. after   12 cycles
 SCF Done:  E(RPBE1PBE) =  -880.930523466     A.U. after   16 cycles
 SCF Done:  E(RPBE1PBE) =  -880.930524654     A.U. after   15 cycles
 SCF Done:  E(RPBE1PBE) =  -880.930525015     A.U. after    9 cycles
 SCF Done:  E(RPBE1PBE) =  -880.930525131     A.U. after   14 cycles
 Optimization completed.
    -- Stationary point found.
 Normal termination of Gaussian 09 at Tue Oct 24 14:01:36 2017.

 ----------------------------------------------------------------------
 #P Geom=AllCheck Guess=TCheck SCRF=Check GenChk RPBE1PBE/6-311+G(d,p)
 Freq
 ----------------------------------------------------------------------

 Structure from the checkpoint file:  "Ac-4_cGalMe.chk"
 -------
 disacch
 -------
 Charge =  1 Multiplicity = 1

                         Standard orientation:
 ---------------------------------------------------------------------
 Center     Atomic      Atomic             Coordinates (Angstroms)
 Number     Number       Type             X           Y           Z
 ---------------------------------------------------------------------
      1          6           0       -2.587050    0.546321   -0.541264
      2          6           0       -1.302979   -0.256888   -0.380461
      3          6           0       -0.375435    0.317095    0.664014
      4          6           0        0.857013   -0.580256    0.878374
      5          6           0        1.248884   -1.246244   -0.456511
      6          6           0        0.703495   -0.420222   -1.609256
      7          8           0       -0.636842   -0.278272   -1.651502
      8          8           0        1.962325    0.128999    1.351633
      9          8           0        0.077356    1.656368    0.250593
     10          8           0       -3.279275    0.549630    0.674641
     11          1           0       -3.174670    0.118454   -1.362208
     12          1           0       -2.346684    1.581407   -0.804294
     13          1           0       -1.536923   -1.287157   -0.087193
     14          1           0       -0.929704    0.521359    1.579202
     15          1           0        0.551987   -1.373291    1.576714
     16          1           0        2.344700   -1.268899   -0.519787
     17          1           0        1.064828   -0.731919   -2.585945
     18          8           0        0.676799   -2.507570   -0.613052
     19          6           0       -4.282653   -0.447041    0.777969
     20          1           0       -4.724243   -0.347875    1.769140
     21          1           0       -5.062014   -0.297161    0.021975
     22          1           0       -3.870159   -1.459282    0.672128
     23          6           0        1.422552   -3.559021   -0.014393
     24          1           0        2.419913   -3.631068   -0.462721
     25          1           0        1.522207   -3.419526    1.069119
     26          1           0        0.870986   -4.477994   -0.205922
     27          6           0        1.842842    0.578414    2.695209
     28          1           0        1.075690    1.355645    2.794227
     29          1           0        1.605935   -0.256653    3.364564
     30          1           0        2.810574    0.994290    2.971882
     31          6           0        0.980717    1.828399   -0.641847
     32          8           0        1.364999    0.953853   -1.478572
     33          6           0        1.609053    3.160550   -0.701029
     34          1           0        2.508470    3.118066   -0.075026
     35          1           0        0.938192    3.914010   -0.289937
     36          1           0        1.909386    3.396892   -1.720689
 ---------------------------------------------------------------------

 SCF Done:  E(RPBE1PBE) =  -880.930525131     A.U. after    1 cycles

 The electronic state is 1-A.
 Alpha  occ. eigenvalues --  -19.45745 -19.45060 -19.39776 -19.36886 -19.35904
 Alpha  occ. eigenvalues --  -19.33410 -10.57671 -10.50851 -10.46047 -10.44346
 Alpha  occ. eigenvalues --  -10.43867 -10.43833 -10.40155 -10.39716 -10.39162
 Alpha  occ. eigenvalues --  -10.38825 -10.37056  -1.37467  -1.29522  -1.26821
 Alpha  occ. eigenvalues --   -1.23472  -1.22051  -1.19731  -1.01831  -0.98837
 Alpha  occ. eigenvalues --   -0.95650  -0.89784  -0.88800  -0.86407  -0.83384
 Alpha  occ. eigenvalues --   -0.82214  -0.79031  -0.77623  -0.76416  -0.73497
 Alpha  occ. eigenvalues --   -0.72677  -0.68441  -0.67678  -0.67095  -0.66702
 Alpha  occ. eigenvalues --   -0.64447  -0.64262  -0.63380  -0.62266  -0.61565
 Alpha  occ. eigenvalues --   -0.60709  -0.59814  -0.59023  -0.58580  -0.58099
 Alpha  occ. eigenvalues --   -0.57811  -0.56602  -0.55861  -0.55182  -0.54513
 Alpha  occ. eigenvalues --   -0.53399  -0.52983  -0.50603  -0.49358  -0.48741
 Alpha  occ. eigenvalues --   -0.47609  -0.47106  -0.45473  -0.43523  -0.41968
 Alpha  occ. eigenvalues --   -0.39928
 Alpha virt. eigenvalues --   -0.20376  -0.11813  -0.10158  -0.09687  -0.08802
 Alpha virt. eigenvalues --   -0.08286  -0.08011  -0.07132  -0.06748  -0.06624
 Alpha virt. eigenvalues --   -0.06171  -0.06098  -0.04938  -0.04615  -0.04126

 Mulliken charges:
               1
     1  C   -0.446317
     2  C   -0.725978
     3  C    0.074120
     4  C   -0.338845
     5  C   -0.070677
     6  C   -0.466301
     7  O    0.080909
     8  O    0.059125
     9  O    0.212195
    10  O   -0.025050
    11  H    0.225242
    12  H    0.224082
    13  H    0.271777
    14  H    0.276401
    15  H    0.223532
    16  H    0.252482
    17  H    0.287146
    18  O    0.015675
    19  C   -0.305064
    20  H    0.190920
    21  H    0.179338
    22  H    0.158445
    23  C   -0.269823
    24  H    0.179208
    25  H    0.165696
    26  H    0.203432
    27  C   -0.298249
    28  H    0.185419
    29  H    0.183648
    30  H    0.207613
    31  C    0.077087
    32  O    0.272916
    33  C   -0.981262
    34  H    0.249956
    35  H    0.238638
    36  H    0.232562
 Sum of Mulliken charges =   1.00000

 Dipole moment (field-independent basis, Debye):
    X=              2.3320    Y=              1.1537    Z=              0.7731  Tot=              2.7142
 Quadrupole moment (field-independent basis, Debye-Ang):
   XX=            -76.8481   YY=            -71.9784   ZZ=            -86.8818
   XY=              6.4839   XZ=             -0.0056   YZ=             -4.9392

  Exact polarizability: 144.989   6.196 146.854  -2.544  -0.118 128.979
 Approx polarizability: 186.688   8.155 189.508  -8.743   3.352 183.863

                      1                      2                      3
                      A                      A                      A
 Frequencies --     44.8499                62.1700                73.6892
 Red. masses --      3.8573                 2.7065                 1.9763
 Frc consts  --      0.0046                 0.0062                 0.0063
 IR Inten    --      1.6970                 0.8982                 2.3640

                      4                      5                      6
                      A                      A                      A
 Frequencies --     77.9289                84.3835                91.7774
 Red. masses --      1.3735                 2.9214                 2.6524
 Frc consts  --      0.0049                 0.0123                 0.0132
 IR Inten    --      0.6639                 2.0313                 3.7504

                      7                      8                      9
                      A                      A                      A
 Frequencies --     99.5578               118.2864               153.2017
 Red. masses --      2.8705                 2.3862                 1.5939
 Frc consts  --      0.0168                 0.0197                 0.0220
 IR Inten    --      4.7903                 3.4206                 0.1806

                     10                     11                     12
                      A                      A                      A
 Frequencies --    162.6440               177.3740               189.4089
 Red. masses --      1.2681                 3.5919                 1.4801
 Frc consts  --      0.0198                 0.0666                 0.0313
 IR Inten    --      0.1178                 1.4112                 1.0856

                     13                     14                     15
                      A                      A                      A
 Frequencies --    219.1174               253.9467               266.8825
 Red. masses --      1.8873                 4.2211                 4.0444
 Frc consts  --      0.0534                 0.1604                 0.1697
 IR Inten    --      0.5997                10.7493                 4.3045

                     16                     17                     18
                      A                      A                      A
 Frequencies --    277.8381               295.7129               319.5529
 Red. masses --      4.1043                 4.0943                 5.0036
 Frc consts  --      0.1867                 0.2109                 0.3010
 IR Inten    --      2.7484                 1.0666                 4.1079

                     19                     20                     21
                      A                      A                      A
 Frequencies --    359.2377               366.1201               399.2820
 Red. masses --      4.9585                 4.5246                 4.7770
 Frc consts  --      0.3770                 0.3573                 0.4487
 IR Inten    --      2.0079                 4.4559                 3.8221

                     22                     23                     24
                      A                      A                      A
 Frequencies --    442.3798               456.9998               489.9296
 Red. masses --      4.3949                 3.3439                 3.3260
 Frc consts  --      0.5067                 0.4115                 0.4704
 IR Inten    --      8.3049                 7.9693                 2.1898

                     25                     26                     27
                      A                      A                      A
 Frequencies --    518.2668               531.5503               612.9342
 Red. masses --      3.9369                 4.1287                 3.5287
 Frc consts  --      0.6230                 0.6873                 0.7811
 IR Inten    --      8.0089                 9.1042                 6.6205

                     28                     29                     30
                      A                      A                      A
 Frequencies --    661.5970               690.7117               725.7472
 Red. masses --      5.4292                 4.2116                 6.1614
 Frc consts  --      1.4002                 1.1838                 1.9120
 IR Inten    --     32.5792                 9.0966               149.1716

                     31                     32                     33
                      A                      A                      A
 Frequencies --    773.0798               814.3019               896.0272
 Red. masses --      4.8228                 6.6697                 3.0305
 Frc consts  --      1.6983                 2.6057                 1.4335
 IR Inten    --      5.2487                20.6925                13.2069

                     34                     35                     36
                      A                      A                      A
 Frequencies --    904.7628               940.7568               968.8052
 Red. masses --      2.8701                 4.1438                 3.8176
 Frc consts  --      1.3843                 2.1608                 2.1111
 IR Inten    --     11.6966                33.4326                34.4405

                     37                     38                     39
                      A                      A                      A
 Frequencies --    974.1055               995.0412              1016.3027
 Red. masses --      2.6548                 4.8096                 2.9835
 Frc consts  --      1.4842                 2.8057                 1.8156
 IR Inten    --     11.9287                23.7992                36.1733

                     40                     41                     42
                      A                      A                      A
 Frequencies --   1040.1946              1049.3620              1049.9936
 Red. masses --      3.8611                 1.6633                 1.9950
 Frc consts  --      2.4614                 1.0792                 1.2959
 IR Inten    --     20.8567                 4.8945                40.6180

                     43                     44                     45
                      A                      A                      A
 Frequencies --   1066.0594              1096.8734              1132.4339
 Red. masses --      2.4444                 2.1421                 1.8351
 Frc consts  --      1.6367                 1.5185                 1.3865
 IR Inten    --      5.4994                 3.6564                18.4946

                     46                     47                     48
                      A                      A                      A
 Frequencies --   1147.8127              1156.8209              1163.7899
 Red. masses --      2.5429                 2.5040                 2.2025
 Frc consts  --      1.9739                 1.9743                 1.7575
 IR Inten    --     14.8244                79.8427               140.6533

                     49                     50                     51
                      A                      A                      A
 Frequencies --   1171.1661              1177.4116              1178.0103
 Red. masses --      1.7014                 1.3221                 1.3387
 Frc consts  --      1.3750                 1.0799                 1.0945
 IR Inten    --     39.2192                 4.5904                17.3812

                     52                     53                     54
                      A                      A                      A
 Frequencies --   1181.6570              1221.6035              1228.7414
 Red. masses --      1.6243                 2.7486                 2.2317
 Frc consts  --      1.3363                 2.4167                 1.9852
 IR Inten    --     59.0963                78.0989               107.8545

                     55                     56                     57
                      A                      A                      A
 Frequencies --   1232.4783              1236.3895              1273.8306
 Red. masses --      2.1966                 2.0862                 1.6122
 Frc consts  --      1.9659                 1.8789                 1.5413
 IR Inten    --     50.8063                27.3542                28.6270

                     58                     59                     60
                      A                      A                      A
 Frequencies --   1299.7411              1309.9978              1316.0479
 Red. masses --      1.2852                 1.4751                 1.2700
 Frc consts  --      1.2792                 1.4915                 1.2960
 IR Inten    --     50.8543                 0.2220                10.0213

                     61                     62                     63
                      A                      A                      A
 Frequencies --   1328.8080              1344.5623              1354.4046
 Red. masses --      1.3646                 1.3232                 1.3019
 Frc consts  --      1.4196                 1.4094                 1.4071
 IR Inten    --      5.1790                18.2228                53.6151

                     64                     65                     66
                      A                      A                      A
 Frequencies --   1377.0445              1387.2186              1394.2586
 Red. masses --      1.3326                 1.4400                 1.3879
 Frc consts  --      1.4889                 1.6326                 1.5897
 IR Inten    --      8.4006                10.2803                 5.7363

                     67                     68                     69
                      A                      A                      A
 Frequencies --   1407.5455              1421.0010              1435.1083
 Red. masses --      1.4283                 1.6282                 1.7846
 Frc consts  --      1.6673                 1.9371                 2.1655
 IR Inten    --     52.0827                 0.6591                11.8288

                     70                     71                     72
                      A                      A                      A
 Frequencies --   1438.9040              1451.1969              1474.5822
 Red. masses --      1.0726                 1.2481                 1.1358
 Frc consts  --      1.3084                 1.5487                 1.4551
 IR Inten    --     52.9436                80.2418                 2.3422

                     73                     74                     75
                      A                      A                      A
 Frequencies --   1475.0665              1476.4268              1489.3163
 Red. masses --      1.1269                 1.1409                 1.0428
 Frc consts  --      1.4446                 1.4653                 1.3628
 IR Inten    --      2.6809                 6.4449                14.4715

                     76                     77                     78
                      A                      A                      A
 Frequencies --   1490.2883              1492.7492              1498.7821
 Red. masses --      1.0442                 1.0637                 1.0645
 Frc consts  --      1.3664                 1.3965                 1.4089
 IR Inten    --     14.3951                11.5632                16.0380

                     79                     80                     81
                      A                      A                      A
 Frequencies --   1499.6796              1500.1391              1502.3546
 Red. masses --      1.0624                 1.0563                 1.0924
 Frc consts  --      1.4078                 1.4005                 1.4527
 IR Inten    --      1.4806                15.0746                 6.3535

                     82                     83                     84
                      A                      A                      A
 Frequencies --   1515.5399              1621.4866              3015.7785
 Red. masses --      3.4746                 5.3552                 1.0376
 Frc consts  --      4.7021                 8.2957                 5.5599
 IR Inten    --    293.8509               286.1851                37.2125

                     85                     86                     87
                      A                      A                      A
 Frequencies --   3024.4958              3026.0916              3028.2195
 Red. masses --      1.0438                 1.0565                 1.0534
 Frc consts  --      5.6254                 5.7000                 5.6915
 IR Inten    --     23.3116                20.9850                20.0471

                     88                     89                     90
                      A                      A                      A
 Frequencies --   3051.1782              3055.4325              3065.3643
 Red. masses --      1.0592                 1.0856                 1.0430
 Frc consts  --      5.8100                 5.9710                 5.7744
 IR Inten    --     17.2537                 6.4412                19.5325

                     91                     92                     93
                      A                      A                      A
 Frequencies --   3075.5456              3087.3798              3096.4140
 Red. masses --      1.0857                 1.1032                 1.1057
 Frc consts  --      6.0506                 6.1954                 6.2461
 IR Inten    --      5.3068                35.3248                25.9036

                     94                     95                     96
                      A                      A                      A
 Frequencies --   3098.8710              3109.8414              3153.3789
 Red. masses --      1.1065                 1.1065                 1.0901
 Frc consts  --      6.2603                 6.3047                 6.3865
 IR Inten    --     23.2955                15.4502                 3.2023

                     97                     98                     99
                      A                      A                      A
 Frequencies --   3160.2462              3165.7812              3172.8963
 Red. masses --      1.0891                 1.1003                 1.1012
 Frc consts  --      6.4087                 6.4971                 6.5316
 IR Inten    --      1.3351                 8.7805                 4.9096

                    100                    101                    102
                      A                      A                      A
 Frequencies --   3177.1155              3190.7290              3204.3741
 Red. masses --      1.1010                 1.0925                 1.1077
 Frc consts  --      6.5479                 6.5530                 6.7014
 IR Inten    --      5.0057                 1.3528                 2.2873

 - Thermochemistry -
 -------------------
 Temperature   298.150 Kelvin.  Pressure   1.00000 Atm.
 Atom     1 has atomic number  6 and mass  12.00000

 Molecular mass:   247.11816 amu.
 Principal axes and moments of inertia in atomic units:
                           1         2         3
     Eigenvalues --  3361.238744261.352435256.59541
           X            0.99972   0.02243   0.00729
           Y           -0.02232   0.99964  -0.01481
           Z           -0.00762   0.01465   0.99986
 This molecule is an asymmetric top.
 Rotational symmetry number  1.
 Warning -- assumption of classical behavior for rotation
           may cause significant error
 Rotational temperatures (Kelvin)      0.02577     0.02033     0.01648
 Rotational constants (GHZ):           0.53693     0.42351     0.34333
 Zero-point vibrational energy     804920.9 (Joules/Mol)
                                  192.38072 (Kcal/Mol)
 Warning -- explicit consideration of  27 degrees of freedom as
           vibrations may cause significant error
 Vibrational temperatures:     64.53    89.45   106.02   112.12   121.41
          (Kelvin)            132.05   143.24   170.19   220.42   234.01
                              255.20   272.52   315.26   365.37   383.98
                              399.75   425.46   459.76   516.86   526.76
                              574.48   636.49   657.52   704.90   745.67
                              764.78   881.87   951.89   993.78  1044.19
                             1112.29  1171.60  1289.18  1301.75  1353.54
                             1393.89  1401.52  1431.64  1462.23  1496.61
                             1509.80  1510.70  1533.82  1578.15  1629.32
                             1651.44  1664.41  1674.43  1685.04  1694.03
                             1694.89  1700.14  1757.61  1767.88  1773.26
                             1778.89  1832.76  1870.04  1884.79  1893.50
                             1911.86  1934.52  1948.68  1981.26  1995.90
                             2006.02  2025.14  2044.50  2064.80  2070.26
                             2087.95  2121.59  2122.29  2124.25  2142.79
                             2144.19  2147.73  2156.41  2157.70  2158.36
                             2161.55  2180.52  2332.95  4339.03  4351.57
                             4353.87  4356.93  4389.96  4396.08  4410.37
                             4425.02  4442.05  4455.04  4458.58  4474.36
                             4537.00  4546.88  4554.85  4565.08  4571.15
                             4590.74  4610.37

 Zero-point correction=                           0.306578 (Hartree/Particle)
 Thermal correction to Energy=                    0.324459
 Thermal correction to Enthalpy=                  0.325403
 Thermal correction to Gibbs Free Energy=         0.260570
 Sum of electronic and zero-point Energies=           -880.623947
 Sum of electronic and thermal Energies=              -880.606066
 Sum of electronic and thermal Enthalpies=            -880.605122
 Sum of electronic and thermal Free Energies=         -880.669955

                     E (Thermal)             CV                S
                      KCal/Mol        Cal/Mol-Kelvin    Cal/Mol-Kelvin
 Total                  203.601             65.164            136.453
 Electronic               0.000              0.000              0.000
 Translational            0.889              2.981             42.415
 Rotational               0.889              2.981             32.687
 Vibrational            201.824             59.203             61.350
 Vibration     1          0.595              1.979              5.032
 Vibration     2          0.597              1.972              4.387
 Vibration     3          0.599              1.966              4.052
 Vibration     4          0.599              1.964              3.942
 Vibration     5          0.601              1.960              3.786
 Vibration     6          0.602              1.955              3.622
 Vibration     7          0.604              1.949              3.463
 Vibration     8          0.608              1.934              3.128
 Vibration     9          0.619              1.899              2.632
 Vibration    10          0.623              1.888              2.519
 Vibration    11          0.628              1.870              2.356
 Vibration    12          0.633              1.854              2.234
 Vibration    13          0.647              1.812              1.966
 Vibration    14          0.665              1.756              1.703
 Vibration    15          0.672              1.734              1.616
 Vibration    16          0.679              1.714              1.547
 Vibration    17          0.690              1.682              1.441
 Vibration    18          0.705              1.636              1.312
 Vibration    19          0.734              1.556              1.125
 Vibration    20          0.739              1.542              1.096
 Vibration    21          0.765              1.472              0.965
 Vibration    22          0.802              1.378              0.819
 Vibration    23          0.815              1.345              0.775
 Vibration    24          0.846              1.272              0.684
 Vibration    25          0.873              1.210              0.614
 Vibration    26          0.887              1.180              0.584
 Vibration    27          0.972              1.004              0.428

 Normal termination of Gaussian 09 at Tue Oct 24 14:29:23 2017.
