 Gaussian 09, Revision D.01,
 Gaussian 09:  EM64L-G09RevD.01 24-Apr-2013

 -------------------------------------------------------------------
 #P PBE1PBE/6-311+G(d,p) opt optcyc=999 freq EmpiricalDispersion=GD3
 -------------------------------------------------------------------

 -------
 disacch
 -------
 Symbolic Z-matrix:
 Charge =  1 Multiplicity = 1

 SCF Done:  E(RPBE1PBE) =  -880.909837588     A.U. after   14 cycles
 SCF Done:  E(RPBE1PBE) =  -880.549814793     A.U. after   20 cycles
 SCF Done:  E(RPBE1PBE) =  -880.910798577     A.U. after   14 cycles
 SCF Done:  E(RPBE1PBE) =  -880.911930248     A.U. after   15 cycles
 SCF Done:  E(RPBE1PBE) =  -880.910660457     A.U. after   18 cycles
 SCF Done:  E(RPBE1PBE) =  -880.914041170     A.U. after   11 cycles
 SCF Done:  E(RPBE1PBE) =  -880.915701252     A.U. after   18 cycles
 SCF Done:  E(RPBE1PBE) =  -880.913836054     A.U. after   16 cycles
 SCF Done:  E(RPBE1PBE) =  -880.915996882     A.U. after   16 cycles
 SCF Done:  E(RPBE1PBE) =  -880.916062348     A.U. after   18 cycles
 SCF Done:  E(RPBE1PBE) =  -880.916183814     A.U. after   13 cycles
 SCF Done:  E(RPBE1PBE) =  -880.916184309     A.U. after   15 cycles
 SCF Done:  E(RPBE1PBE) =  -880.916184825     A.U. after    9 cycles
 SCF Done:  E(RPBE1PBE) =  -880.916185531     A.U. after   14 cycles
 SCF Done:  E(RPBE1PBE) =  -880.916185852     A.U. after   11 cycles
 SCF Done:  E(RPBE1PBE) =  -880.916185772     A.U. after   16 cycles
 SCF Done:  E(RPBE1PBE) =  -880.916185577     A.U. after   15 cycles
 SCF Done:  E(RPBE1PBE) =  -880.916185581     A.U. after   14 cycles
 SCF Done:  E(RPBE1PBE) =  -880.916185653     A.U. after   14 cycles
 Optimization completed on the basis of negligible forces.
    -- Stationary point found.
 Normal termination of Gaussian 09 at Tue Oct 24 14:40:27 2017.

 ----------------------------------------------------------------------
 #P Geom=AllCheck Guess=TCheck SCRF=Check GenChk RPBE1PBE/6-311+G(d,p)
 Freq
 ----------------------------------------------------------------------

 Structure from the checkpoint file:  "Ac-4_cGalMe.chk"
 -------
 disacch
 -------
 Charge =  1 Multiplicity = 1

                         Standard orientation:
 ---------------------------------------------------------------------
 Center     Atomic      Atomic             Coordinates (Angstroms)
 Number     Number       Type             X           Y           Z
 ---------------------------------------------------------------------
      1          6           0       -0.939168   -1.908528   -0.530710
      2          6           0       -0.427804   -0.767054   -1.408568
      3          6           0        0.670272    0.075928   -0.775188
      4          6           0        0.254391    0.621185    0.602681
      5          6           0       -1.227227    1.071844    0.607143
      6          6           0       -2.080704    0.207151   -0.315292
      7          8           0       -1.605000    0.030577   -1.574083
      8          8           0        0.435938   -0.408202    1.544020
      9          8           0        1.797521   -0.775431   -0.721059
     10          8           0       -1.993641   -1.235214    0.263880
     11          1           0       -0.205843   -2.288292    0.176931
     12          1           0       -1.421868   -2.691909   -1.114482
     13          1           0       -0.119865   -1.124762   -2.390239
     14          1           0        0.870130    0.921172   -1.440249
     15          1           0        0.882617    1.482881    0.849846
     16          1           0       -1.598562    0.922271    1.625650
     17          1           0       -3.132866    0.493560   -0.329292
     18          8           0       -1.487361    2.411258    0.309356
     19          6           0       -3.252022   -1.960535    0.402147
     20          1           0       -3.864057   -1.386577    1.095143
     21          1           0       -3.724195   -2.056572   -0.577461
     22          1           0       -3.007901   -2.930767    0.830613
     23          6           0       -0.821255    3.009669   -0.797663
     24          1           0        0.264556    3.029391   -0.652399
     25          1           0       -1.065199    2.514676   -1.743303
     26          1           0       -1.181800    4.036556   -0.832408
     27          6           0        0.765896    0.057234    2.843608
     28          1           0        1.700766    0.628863    2.823524
     29          1           0       -0.028655    0.684444    3.267278
     30          1           0        0.892393   -0.824383    3.471263
     31          6           0        2.980606   -0.167109   -0.413247
     32          8           0        3.046253    1.014769   -0.221810
     33          6           0        4.094602   -1.155049   -0.355836
     34          1           0        4.149076   -1.716558   -1.291130
     35          1           0        3.904399   -1.871127    0.447949
     36          1           0        5.031654   -0.633353   -0.174114
 ---------------------------------------------------------------------

 SCF Done:  E(RPBE1PBE) =  -880.916185653     A.U. after    3 cycles

 The electronic state is 1-A.
 Alpha  occ. eigenvalues --  -19.49776 -19.41503 -19.37998 -19.35214 -19.34938
 Alpha  occ. eigenvalues --  -19.31287 -10.51940 -10.47360 -10.46616 -10.46302
 Alpha  occ. eigenvalues --  -10.45967 -10.43526 -10.43455 -10.42369 -10.38287
 Alpha  occ. eigenvalues --  -10.38207 -10.33467  -1.35894  -1.27725  -1.27112
 Alpha  occ. eigenvalues --   -1.21917  -1.20819  -1.17899  -1.00907  -0.97827
 Alpha  occ. eigenvalues --   -0.95139  -0.90043  -0.87880  -0.86461  -0.84208
 Alpha  occ. eigenvalues --   -0.81972  -0.80939  -0.76769  -0.74796  -0.72925
 Alpha  occ. eigenvalues --   -0.70982  -0.68860  -0.67257  -0.67035  -0.65704
 Alpha  occ. eigenvalues --   -0.65280  -0.63882  -0.62512  -0.62336  -0.61551
 Alpha  occ. eigenvalues --   -0.60591  -0.60467  -0.59587  -0.58656  -0.58015
 Alpha  occ. eigenvalues --   -0.56114  -0.55876  -0.55347  -0.53154  -0.52882
 Alpha  occ. eigenvalues --   -0.52766  -0.52397  -0.51412  -0.49725  -0.48585
 Alpha  occ. eigenvalues --   -0.47757  -0.46454  -0.44608  -0.42596  -0.41416
 Alpha  occ. eigenvalues --   -0.39961
 Alpha virt. eigenvalues --   -0.14432  -0.12291  -0.11214  -0.10729  -0.10332
 Alpha virt. eigenvalues --   -0.09280  -0.08993  -0.08210  -0.07383  -0.06750
 Alpha virt. eigenvalues --   -0.06382  -0.06033  -0.05258  -0.04562  -0.04332

 Mulliken charges:
               1
     1  C   -0.310249
     2  C   -0.669110
     3  C   -0.590520
     4  C    0.234889
     5  C   -1.077228
     6  C   -0.309569
     7  O    0.081687
     8  O    0.022260
     9  O    0.185879
    10  O    0.165748
    11  H    0.308311
    12  H    0.258783
    13  H    0.274140
    14  H    0.270406
    15  H    0.275702
    16  H    0.250633
    17  H    0.274618
    18  O    0.097913
    19  C   -0.248182
    20  H    0.228995
    21  H    0.235244
    22  H    0.225965
    23  C   -0.328878
    24  H    0.206768
    25  H    0.188672
    26  H    0.211884
    27  C   -0.217929
    28  H    0.191850
    29  H    0.168348
    30  H    0.189553
    31  C    0.357676
    32  O   -0.182511
    33  C   -0.608221
    34  H    0.207081
    35  H    0.208247
    36  H    0.221144
 Sum of Mulliken charges =   1.00000

 Dipole moment (field-independent basis, Debye):
    X=             -5.5163    Y=             -5.5539    Z=             -0.0993  Tot=              7.8284
 Quadrupole moment (field-independent basis, Debye-Ang):
   XX=            -65.3411   YY=            -81.5621   ZZ=            -87.2151
   XY=              5.9718   XZ=             -1.5896   YZ=             -0.6739

  Exact polarizability: 150.538  -0.224 140.929  -0.122  -1.775 123.047
 Approx polarizability: 184.519  -0.378 199.009  -1.160  -0.841 173.684

                      1                      2                      3
                      A                      A                      A
 Frequencies --     37.9031                39.1930                67.1145
 Red. masses --      1.3644                 2.9949                 3.1781
 Frc consts  --      0.0012                 0.0027                 0.0084
 IR Inten    --      0.7388                 1.2831                 2.1783

                      4                      5                      6
                      A                      A                      A
 Frequencies --     80.2990                88.4263               105.8910
 Red. masses --      3.2179                 3.1208                 3.4639
 Frc consts  --      0.0122                 0.0144                 0.0229
 IR Inten    --      1.0080                 2.2526                 2.3735

                      7                      8                      9
                      A                      A                      A
 Frequencies --    115.7582               118.0373               157.8761
 Red. masses --      3.6029                 2.8744                 3.3183
 Frc consts  --      0.0284                 0.0236                 0.0487
 IR Inten    --      0.6958                 3.7385                 3.3571

                     10                     11                     12
                      A                      A                      A
 Frequencies --    178.9932               202.0277               216.9302
 Red. masses --      1.2152                 1.5558                 2.4680
 Frc consts  --      0.0229                 0.0374                 0.0684
 IR Inten    --      0.4892                 0.2475                12.8899

                     13                     14                     15
                      A                      A                      A
 Frequencies --    227.8856               250.9262               272.1496
 Red. masses --      1.6169                 2.4500                 2.4090
 Frc consts  --      0.0495                 0.0909                 0.1051
 IR Inten    --      3.4788                 0.3976                 2.5382

                     16                     17                     18
                      A                      A                      A
 Frequencies --    278.7350               287.6987               300.5657
 Red. masses --      3.6932                 3.3704                 3.8523
 Frc consts  --      0.1691                 0.1644                 0.2050
 IR Inten    --      2.5557                 5.5855                13.1640

                     19                     20                     21
                      A                      A                      A
 Frequencies --    354.9825               370.5124               395.6778
 Red. masses --      3.8329                 4.3554                 3.9916
 Frc consts  --      0.2846                 0.3523                 0.3682
 IR Inten    --      1.5953                 4.3628                 1.2939

                     22                     23                     24
                      A                      A                      A
 Frequencies --    444.5409               476.5081               517.8146
 Red. masses --      3.5580                 4.8269                 4.1596
 Frc consts  --      0.4143                 0.6457                 0.6571
 IR Inten    --      3.7219                13.1606                 8.1551

                     25                     26                     27
                      A                      A                      A
 Frequencies --    533.5949               565.7055               600.1987
 Red. masses --      4.9267                 5.7422                 2.7017
 Frc consts  --      0.8265                 1.0827                 0.5734
 IR Inten    --     24.6771                55.7740                 7.4898

                     28                     29                     30
                      A                      A                      A
 Frequencies --    641.4813               681.8031               737.7375
 Red. masses --      5.3825                 5.3932                 5.3505
 Frc consts  --      1.3050                 1.4771                 1.7157
 IR Inten    --     36.6668                10.5860                78.9927

                     31                     32                     33
                      A                      A                      A
 Frequencies --    754.6881               815.3828               857.1801
 Red. masses --      4.6677                 4.0708                 3.5746
 Frc consts  --      1.5663                 1.5946                 1.5475
 IR Inten    --     23.4479                 5.6782                17.7661

                     34                     35                     36
                      A                      A                      A
 Frequencies --    900.9701               919.8648               925.4003
 Red. masses --      3.6024                 3.4840                 3.6961
 Frc consts  --      1.7229                 1.7369                 1.8649
 IR Inten    --     10.6262                 9.3588                24.1498

                     37                     38                     39
                      A                      A                      A
 Frequencies --    958.2470               966.6645              1005.9426
 Red. masses --      4.5054                 2.6502                 1.9775
 Frc consts  --      2.4375                 1.4591                 1.1790
 IR Inten    --     78.4293                13.1852                40.1054

                     40                     41                     42
                      A                      A                      A
 Frequencies --   1019.7858              1042.1218              1054.4052
 Red. masses --      2.4509                 4.3128                 4.2293
 Frc consts  --      1.5018                 2.7596                 2.7704
 IR Inten    --     45.4863                23.3352                62.3947

                     43                     44                     45
                      A                      A                      A
 Frequencies --   1062.5962              1068.8622              1095.7425
 Red. masses --      1.8673                 2.5617                 1.8211
 Frc consts  --      1.2422                 1.7244                 1.2883
 IR Inten    --      9.1965                20.0219                29.0158

                     46                     47                     48
                      A                      A                      A
 Frequencies --   1137.5547              1142.1882              1165.2103
 Red. masses --      4.9234                 2.6506                 1.7030
 Frc consts  --      3.7537                 2.0373                 1.3623
 IR Inten    --     85.1128               101.5419                75.3534

                     49                     50                     51
                      A                      A                      A
 Frequencies --   1171.7898              1179.0875              1182.1233
 Red. masses --      1.4176                 1.2946                 1.4463
 Frc consts  --      1.1468                 1.0604                 1.1908
 IR Inten    --     14.1006                 6.2228                23.5025

                     52                     53                     54
                      A                      A                      A
 Frequencies --   1188.6183              1195.6355              1216.8563
 Red. masses --      1.7160                 1.6012                 1.7966
 Frc consts  --      1.4284                 1.3486                 1.5674
 IR Inten    --     15.6439                14.0844                 6.4276

                     55                     56                     57
                      A                      A                      A
 Frequencies --   1219.6007              1228.4740              1239.8828
 Red. masses --      2.2582                 2.0029                 1.5545
 Frc consts  --      1.9790                 1.7809                 1.4080
 IR Inten    --     78.3725                84.1156               227.7780

                     58                     59                     60
                      A                      A                      A
 Frequencies --   1254.7510              1271.1901              1278.7373
 Red. masses --      2.1647                 1.9145                 1.3281
 Frc consts  --      2.0080                 1.8227                 1.2796
 IR Inten    --    183.6253                17.9129                 3.9869

                     61                     62                     63
                      A                      A                      A
 Frequencies --   1307.8920              1351.3251              1357.6797
 Red. masses --      1.3361                 1.2592                 1.2765
 Frc consts  --      1.3466                 1.3548                 1.3864
 IR Inten    --     16.2003                 2.9324                11.9800

                     64                     65                     66
                      A                      A                      A
 Frequencies --   1368.9914              1380.2774              1391.8026
 Red. masses --      1.7422                 1.4263                 1.4482
 Frc consts  --      1.9238                 1.6011                 1.6528
 IR Inten    --      0.1581                 5.1801                28.3642

                     67                     68                     69
                      A                      A                      A
 Frequencies --   1398.9077              1404.2333              1411.9452
 Red. masses --      1.3616                 1.5259                 1.5908
 Frc consts  --      1.5700                 1.7728                 1.8686
 IR Inten    --     29.3409                49.9308                11.9441

                     70                     71                     72
                      A                      A                      A
 Frequencies --   1434.8603              1460.5878              1463.7766
 Red. masses --      1.5109                 1.0483                 1.1340
 Frc consts  --      1.8328                 1.3176                 1.4315
 IR Inten    --      4.3460                13.3703                 4.0018

                     73                     74                     75
                      A                      A                      A
 Frequencies --   1467.0893              1477.2100              1477.3540
 Red. masses --      1.0458                 1.1409                 1.1294
 Frc consts  --      1.3263                 1.4669                 1.4524
 IR Inten    --     13.4873                 0.9574                10.7046

                     76                     77                     78
                      A                      A                      A
 Frequencies --   1481.5480              1484.2856              1489.3264
 Red. masses --      1.0696                 1.0524                 1.0514
 Frc consts  --      1.3833                 1.3660                 1.3741
 IR Inten    --     19.1566                13.4952                17.2221

                     79                     80                     81
                      A                      A                      A
 Frequencies --   1490.7030              1500.3780              1504.8335
 Red. masses --      1.0650                 1.0450                 1.0634
 Frc consts  --      1.3944                 1.3860                 1.4188
 IR Inten    --     13.4752                10.3877                 8.5584

                     82                     83                     84
                      A                      A                      A
 Frequencies --   1508.0856              1854.9698              3021.6587
 Red. masses --      1.0553                11.6261                 1.0357
 Frc consts  --      1.4141                23.5698                 5.5718
 IR Inten    --     22.5139               217.4701                31.4716

                     85                     86                     87
                      A                      A                      A
 Frequencies --   3034.8405              3075.8032              3079.6741
 Red. masses --      1.0350                 1.0374                 1.0294
 Frc consts  --      5.6163                 5.7827                 5.7523
 IR Inten    --     21.7183                 0.9591                 2.8354

                     88                     89                     90
                      A                      A                      A
 Frequencies --   3084.6830              3090.7917              3093.7834
 Red. masses --      1.0865                 1.0864                 1.1032
 Frc consts  --      6.0912                 6.1149                 6.2211
 IR Inten    --      5.2676                 5.1954                20.1045

                     91                     92                     93
                      A                      A                      A
 Frequencies --   3098.6165              3112.4341              3122.4877
 Red. masses --      1.0856                 1.1065                 1.0594
 Frc consts  --      6.1412                 6.3155                 6.0858
 IR Inten    --      7.5066                16.3771                 4.2720

                     94                     95                     96
                      A                      A                      A
 Frequencies --   3149.4497              3157.2784              3160.6691
 Red. masses --      1.0997                 1.0890                 1.0940
 Frc consts  --      6.4265                 6.3961                 6.4392
 IR Inten    --      0.4196                 1.3756                 1.2995

                     97                     98                     99
                      A                      A                      A
 Frequencies --   3166.3037              3173.2914              3194.2216
 Red. masses --      1.1013                 1.1008                 1.1095
 Frc consts  --      6.5051                 6.5309                 6.6696
 IR Inten    --      8.1104                 5.4007                 0.2286

                    100                    101                    102
                      A                      A                      A
 Frequencies --   3199.4462              3211.5956              3215.6679
 Red. masses --      1.1040                 1.1106                 1.1134
 Frc consts  --      6.6583                 6.7493                 6.7835
 IR Inten    --      0.5967                 1.0947                 1.8542

 - Thermochemistry -
 -------------------
 Temperature   298.150 Kelvin.  Pressure   1.00000 Atm.
 Atom     1 has atomic number  6 and mass  12.00000

 Molecular mass:   247.11816 amu.
 Principal axes and moments of inertia in atomic units:
                           1         2         3
     Eigenvalues --  2701.183604630.888625219.12628
           X            1.00000   0.00266   0.00158
           Y           -0.00263   0.99979  -0.02010
           Z           -0.00163   0.02009   0.99980
 This molecule is an asymmetric top.
 Rotational symmetry number  1.
 Warning -- assumption of classical behavior for rotation
           may cause significant error
 Rotational temperatures (Kelvin)      0.03207     0.01870     0.01660
 Rotational constants (GHZ):           0.66813     0.38972     0.34579
 Zero-point vibrational energy     806147.2 (Joules/Mol)
                                  192.67379 (Kcal/Mol)
 Warning -- explicit consideration of  27 degrees of freedom as
           vibrations may cause significant error
 Vibrational temperatures:     54.53    56.39    96.56   115.53   127.23
          (Kelvin)            152.35   166.55   169.83   227.15   257.53
                              290.67   312.11   327.88   361.03   391.56
                              401.04   413.93   432.45   510.74   533.08
                              569.29   639.59   685.59   745.02   767.72
                              813.92   863.55   922.95   980.96  1061.44
                             1085.83  1173.15  1233.29  1296.29  1323.48
                             1331.44  1378.70  1390.81  1447.33  1467.24
                             1499.38  1517.05  1528.84  1537.85  1576.53
                             1636.69  1643.35  1676.48  1685.94  1696.44
                             1700.81  1710.15  1720.25  1750.78  1754.73
                             1767.50  1783.91  1805.30  1828.96  1839.82
                             1881.76  1944.25  1953.40  1969.67  1985.91
                             2002.49  2012.71  2020.38  2031.47  2064.44
                             2101.46  2106.05  2110.81  2125.37  2125.58
                             2131.61  2135.55  2142.81  2144.79  2158.71
                             2165.12  2169.80  2668.88  4347.49  4366.45
                             4425.39  4430.96  4438.17  4446.95  4451.26
                             4458.21  4478.09  4492.56  4531.35  4542.61
                             4547.49  4555.60  4565.65  4595.77  4603.28
                             4620.76  4626.62

 Zero-point correction=                           0.307045 (Hartree/Particle)
 Thermal correction to Energy=                    0.324838
 Thermal correction to Enthalpy=                  0.325782
 Thermal correction to Gibbs Free Energy=         0.261005
 Sum of electronic and zero-point Energies=           -880.609140
 Sum of electronic and thermal Energies=              -880.591347
 Sum of electronic and thermal Enthalpies=            -880.590403
 Sum of electronic and thermal Free Energies=         -880.655180

                     E (Thermal)             CV                S
                      KCal/Mol        Cal/Mol-Kelvin    Cal/Mol-Kelvin
 Total                  203.839             65.398            136.335
 Electronic               0.000              0.000              0.000
 Translational            0.889              2.981             42.415
 Rotational               0.889              2.981             32.546
 Vibrational            202.062             59.436             61.374
 Vibration     1          0.594              1.982              5.366
 Vibration     2          0.594              1.981              5.299
 Vibration     3          0.598              1.970              4.236
 Vibration     4          0.600              1.963              3.884
 Vibration     5          0.601              1.957              3.695
 Vibration     6          0.605              1.945              3.343
 Vibration     7          0.608              1.936              3.170
 Vibration     8          0.608              1.934              3.132
 Vibration     9          0.621              1.894              2.575
 Vibration    10          0.629              1.868              2.339
 Vibration    11          0.639              1.837              2.115
 Vibration    12          0.646              1.815              1.985
 Vibration    13          0.651              1.798              1.896
 Vibration    14          0.663              1.761              1.724
 Vibration    15          0.675              1.725              1.583
 Vibration    16          0.679              1.713              1.541
 Vibration    17          0.685              1.697              1.487
 Vibration    18          0.693              1.673              1.414
 Vibration    19          0.731              1.565              1.144
 Vibration    20          0.743              1.533              1.078
 Vibration    21          0.762              1.479              0.979
 Vibration    22          0.804              1.373              0.812
 Vibration    23          0.833              1.302              0.720
 Vibration    24          0.873              1.211              0.615
 Vibration    25          0.889              1.176              0.579
 Vibration    26          0.922              1.105              0.513
 Vibration    27          0.958              1.031              0.449

 Optimization completed on the basis of negligible forces.
    -- Stationary point found.
 Normal termination of Gaussian 09 at Tue Oct 24 14:59:10 2017.
