 Gaussian 09, Revision D.01,
 Gaussian 09:  EM64L-G09RevD.01 24-Apr-2013

 -------------------------------------------------------------------
 #P PBE1PBE/6-311+G(d,p) opt optcyc=999 freq EmpiricalDispersion=GD3
 -------------------------------------------------------------------

 -------
 disacch
 -------
 Symbolic Z-matrix:
 Charge =  1 Multiplicity = 1

 SCF Done:  E(RPBE1PBE) =  -880.907014818     A.U. after   14 cycles
 SCF Done:  E(RPBE1PBE) =  -880.904885135     A.U. after   15 cycles
 SCF Done:  E(RPBE1PBE) =  -880.909104175     A.U. after   13 cycles
 SCF Done:  E(RPBE1PBE) =  -880.909562209     A.U. after   12 cycles
 SCF Done:  E(RPBE1PBE) =  -880.910834349     A.U. after   17 cycles
 SCF Done:  E(RPBE1PBE) =  -880.904778517     A.U. after   19 cycles
 SCF Done:  E(RPBE1PBE) =  -880.911001163     A.U. after   11 cycles
 SCF Done:  E(RPBE1PBE) =  -880.911097362     A.U. after   18 cycles
 SCF Done:  E(RPBE1PBE) =  -880.911228153     A.U. after   14 cycles
 SCF Done:  E(RPBE1PBE) =  -880.911234669     A.U. after   17 cycles
 SCF Done:  E(RPBE1PBE) =  -880.911237613     A.U. after   15 cycles
 SCF Done:  E(RPBE1PBE) =  -880.911238224     A.U. after    9 cycles
 SCF Done:  E(RPBE1PBE) =  -880.911238500     A.U. after   14 cycles
 SCF Done:  E(RPBE1PBE) =  -880.911238605     A.U. after   13 cycles
 SCF Done:  E(RPBE1PBE) =  -880.911238690     A.U. after   14 cycles
 SCF Done:  E(RPBE1PBE) =  -880.911238737     A.U. after   15 cycles
 SCF Done:  E(RPBE1PBE) =  -880.911238758     A.U. after    7 cycles
 Optimization completed.
    -- Stationary point found.
 Normal termination of Gaussian 09 at Tue Jan 10 14:28:48 2017.

 ----------------------------------------------------------------------
 #P Geom=AllCheck Guess=TCheck SCRF=Check GenChk RPBE1PBE/6-311+G(d,p)
 Freq
 ----------------------------------------------------------------------

 Structure from the checkpoint file:  "Ac-4_cGalMe.chk"
 -------
 disacch
 -------
 Charge =  1 Multiplicity = 1

                         Standard orientation:
 ---------------------------------------------------------------------
 Center     Atomic      Atomic             Coordinates (Angstroms)
 Number     Number       Type             X           Y           Z
 ---------------------------------------------------------------------
      1          6           0       -2.642048   -0.604846   -0.701528
      2          6           0       -1.232509   -0.943144   -0.230560
      3          6           0       -0.614859    0.136772    0.629677
      4          6           0        0.810221   -0.236631    1.072505
      5          6           0        1.506121   -1.060830    0.016949
      6          6           0        0.875860   -1.463248   -1.110068
      7          8           0       -0.437951   -1.194543   -1.376073
      8          8           0        1.580528    0.898872    1.336439
      9          8           0       -0.672808    1.441869   -0.048314
     10          8           0       -3.452194   -0.312255    0.400669
     11          1           0       -3.025472   -1.441122   -1.297998
     12          1           0       -2.608674    0.277287   -1.348302
     13          1           0       -1.254719   -1.848392    0.396397
     14          1           0       -1.264670    0.324766    1.483225
     15          1           0        0.711325   -0.860771    1.973792
     16          1           0        1.281078    0.450605   -1.209342
     17          1           0        1.348187   -2.041336   -1.893771
     18          8           0        2.765981   -1.342198    0.358445
     19          6           0       -4.204389   -1.412726    0.883077
     20          1           0       -4.783202   -1.050472    1.732249
     21          1           0       -4.891755   -1.784975    0.114638
     22          1           0       -3.560875   -2.237239    1.218445
     23          6           0        3.540067   -2.127981   -0.537623
     24          1           0        3.077331   -3.108549   -0.695066
     25          1           0        3.666451   -1.614496   -1.497376
     26          1           0        4.510853   -2.252149   -0.063232
     27          6           0        1.413629    1.428568    2.644534
     28          1           0        0.390783    1.789442    2.810071
     29          1           0        1.665578    0.677120    3.400949
     30          1           0        2.105074    2.265696    2.729268
     31          6           0        0.107107    1.959000   -0.917687
     32          8           0        1.092858    1.398199   -1.486288
     33          6           0       -0.178414    3.358739   -1.288706
     34          1           0       -1.204098    3.623813   -1.040240
     35          1           0        0.037365    3.515557   -2.345698
     36          1           0        0.503410    3.993611   -0.710459
 ---------------------------------------------------------------------

 SCF Done:  E(RPBE1PBE) =  -880.911238758     A.U. after    3 cycles

 The electronic state is 1-A.
 Alpha  occ. eigenvalues --  -19.45618 -19.44389 -19.38994 -19.37775 -19.36131
 Alpha  occ. eigenvalues --  -19.33474 -10.57610 -10.46142 -10.44830 -10.43983
 Alpha  occ. eigenvalues --  -10.43887 -10.42816 -10.40222 -10.39368 -10.39150
 Alpha  occ. eigenvalues --  -10.38798 -10.37191  -1.36653  -1.28879  -1.26366
 Alpha  occ. eigenvalues --   -1.24907  -1.22307  -1.19803  -1.01920  -0.97411
 Alpha  occ. eigenvalues --   -0.95882  -0.89738  -0.88178  -0.86071  -0.84321
 Alpha  occ. eigenvalues --   -0.83174  -0.80986  -0.77218  -0.75889  -0.72264
 Alpha  occ. eigenvalues --   -0.71246  -0.68884  -0.68819  -0.67975  -0.66314
 Alpha  occ. eigenvalues --   -0.64617  -0.63215  -0.62821  -0.61443  -0.61052
 Alpha  occ. eigenvalues --   -0.60576  -0.59854  -0.58659  -0.58628  -0.57956
 Alpha  occ. eigenvalues --   -0.57461  -0.56744  -0.55778  -0.55197  -0.54253
 Alpha  occ. eigenvalues --   -0.53105  -0.51772  -0.51256  -0.50154  -0.48845
 Alpha  occ. eigenvalues --   -0.48338  -0.46820  -0.45511  -0.42600  -0.40064
 Alpha  occ. eigenvalues --   -0.37825
 Alpha virt. eigenvalues --   -0.19766  -0.13825  -0.11243  -0.10055  -0.09212
 Alpha virt. eigenvalues --   -0.08249  -0.08016  -0.07386  -0.07078  -0.06343
 Alpha virt. eigenvalues --   -0.05983  -0.05605  -0.05369  -0.04379  -0.04277

 Mulliken charges:
               1
     1  C   -0.478734
     2  C   -0.856846
     3  C    0.050746
     4  C   -0.539595
     5  C   -0.172618
     6  C    0.108159
     7  O    0.001297
     8  O    0.058823
     9  O    0.215870
    10  O   -0.037720
    11  H    0.222583
    12  H    0.220297
    13  H    0.237763
    14  H    0.268289
    15  H    0.241602
    16  H    0.444777
    17  H    0.199882
    18  O   -0.060912
    19  C   -0.307601
    20  H    0.193064
    21  H    0.177409
    22  H    0.159101
    23  C   -0.316986
    24  H    0.190921
    25  H    0.189590
    26  H    0.207848
    27  C   -0.270119
    28  H    0.179176
    29  H    0.187792
    30  H    0.202238
    31  C    0.258033
    32  O   -0.027697
    33  C   -0.862432
    34  H    0.233073
    35  H    0.233504
    36  H    0.249420
 Sum of Mulliken charges =   1.00000

 Dipole moment (field-independent basis, Debye):
    X=              0.4360    Y=              0.9432    Z=             -0.2757  Tot=              1.0751
 Quadrupole moment (field-independent basis, Debye-Ang):
   XX=            -77.5410   YY=            -69.7101   ZZ=            -85.1679
   XY=             -0.6757   XZ=             -3.0820   YZ=             -2.4529

  Exact polarizability: 158.525  -1.522 144.252   0.096   0.401 134.198
 Approx polarizability: 200.364   1.651 190.126   2.311   1.267 198.878

                      1                      2                      3
                      A                      A                      A
 Frequencies --     41.9512                47.3480                49.3388
 Red. masses --      3.8229                 2.5286                 2.6020
 Frc consts  --      0.0040                 0.0033                 0.0037
 IR Inten    --      1.5770                 0.2592                 3.1115

                      4                      5                      6
                      A                      A                      A
 Frequencies --     63.0030                66.7773                79.3701
 Red. masses --      3.9587                 1.9009                 1.4727
 Frc consts  --      0.0093                 0.0050                 0.0055
 IR Inten    --      0.7425                 4.9111                 2.8969

                      7                      8                      9
                      A                      A                      A
 Frequencies --     94.4614               116.3657               130.7846
 Red. masses --      2.6287                 3.8864                 3.7233
 Frc consts  --      0.0138                 0.0310                 0.0375
 IR Inten    --      1.4504                 1.8078                 0.4840

                     10                     11                     12
                      A                      A                      A
 Frequencies --    159.7373               174.1058               197.9433
 Red. masses --      1.8356                 1.3812                 2.3198
 Frc consts  --      0.0276                 0.0247                 0.0536
 IR Inten    --      0.4554                 0.7044                 0.9218

                     13                     14                     15
                      A                      A                      A
 Frequencies --    204.0666               227.6974               236.5762
 Red. masses --      4.6324                 2.9645                 3.1892
 Frc consts  --      0.1137                 0.0906                 0.1052
 IR Inten    --     18.3041                 0.4366                 6.3271

                     16                     17                     18
                      A                      A                      A
 Frequencies --    254.3125               262.0869               305.7841
 Red. masses --      1.2824                 4.0496                 5.8173
 Frc consts  --      0.0489                 0.1639                 0.3205
 IR Inten    --      0.3863                 9.6613                 1.3614

                     19                     20                     21
                      A                      A                      A
 Frequencies --    328.9521               360.9858               363.7292
 Red. masses --      4.0442                 3.7304                 3.9759
 Frc consts  --      0.2578                 0.2864                 0.3099
 IR Inten    --      2.7929                 8.7849                 0.7861

                     22                     23                     24
                      A                      A                      A
 Frequencies --    384.2206               431.2862               465.9043
 Red. masses --      4.1618                 3.2289                 2.6929
 Frc consts  --      0.3620                 0.3539                 0.3444
 IR Inten    --      0.6551                 0.8114                 2.3518

                     25                     26                     27
                      A                      A                      A
 Frequencies --    492.4603               515.9795               582.3291
 Red. masses --      4.2029                 4.6402                 2.6342
 Frc consts  --      0.6005                 0.7279                 0.5263
 IR Inten    --      5.8351                11.6223                 1.1925

                     28                     29                     30
                      A                      A                      A
 Frequencies --    605.7974               633.8516               675.4694
 Red. masses --      4.2644                 3.8255                 4.5025
 Frc consts  --      0.9221                 0.9056                 1.2104
 IR Inten    --      0.5341                 8.9518                 5.9264

                     31                     32                     33
                      A                      A                      A
 Frequencies --    683.1370               755.9126               794.8931
 Red. masses --      5.3133                 5.3235                 3.1963
 Frc consts  --      1.4609                 1.7922                 1.1899
 IR Inten    --      8.4701                 7.5787                40.2975

                     34                     35                     36
                      A                      A                      A
 Frequencies --    813.2909               893.5510               901.6670
 Red. masses --      1.6076                 2.8047                 1.2709
 Frc consts  --      0.6265                 1.3194                 0.6088
 IR Inten    --     20.6432                18.2265                24.6085

                     37                     38                     39
                      A                      A                      A
 Frequencies --    926.9314               966.1569               993.1143
 Red. masses --      2.6293                 3.5445                 3.2933
 Frc consts  --      1.3310                 1.9494                 1.9137
 IR Inten    --     10.7296                30.7994                19.0652

                     40                     41                     42
                      A                      A                      A
 Frequencies --   1010.7220              1030.0990              1043.6990
 Red. masses --      3.5751                 2.7977                 3.9004
 Frc consts  --      2.1518                 1.7491                 2.5033
 IR Inten    --     20.8788                14.8917                20.3033

                     43                     44                     45
                      A                      A                      A
 Frequencies --   1054.4065              1060.5068              1098.6479
 Red. masses --      1.7204                 1.8980                 2.9285
 Frc consts  --      1.1269                 1.2577                 2.0826
 IR Inten    --      8.6452                19.8173                19.1392

                     46                     47                     48
                      A                      A                      A
 Frequencies --   1125.6380              1141.0950              1160.4095
 Red. masses --      2.0670                 2.6470                 2.5103
 Frc consts  --      1.5430                 2.0307                 1.9916
 IR Inten    --      5.7777                80.9294                88.3181

                     49                     50                     51
                      A                      A                      A
 Frequencies --   1170.5393              1173.2911              1176.7099
 Red. masses --      1.7105                 1.2873                 1.3618
 Frc consts  --      1.3809                 1.0441                 1.1110
 IR Inten    --     37.5859                 1.4100                11.7705

                     52                     53                     54
                      A                      A                      A
 Frequencies --   1179.9331              1194.0411              1221.3653
 Red. masses --      1.7741                 1.9252                 1.8931
 Frc consts  --      1.4552                 1.6172                 1.6639
 IR Inten    --     45.2437               148.0923                85.0759

                     55                     56                     57
                      A                      A                      A
 Frequencies --   1228.5006              1239.9053              1275.1412
 Red. masses --      2.2434                 2.6195                 1.4265
 Frc consts  --      1.9949                 2.3727                 1.3666
 IR Inten    --     68.2735               202.9007                77.3357

                     58                     59                     60
                      A                      A                      A
 Frequencies --   1305.2072              1308.6011              1309.4183
 Red. masses --      2.0080                 1.4138                 1.3453
 Frc consts  --      2.0155                 1.4264                 1.3591
 IR Inten    --    145.9931                48.9926                 0.3028

                     61                     62                     63
                      A                      A                      A
 Frequencies --   1330.1308              1340.9768              1359.9986
 Red. masses --      1.5396                 1.2377                 1.3547
 Frc consts  --      1.6049                 1.3113                 1.4763
 IR Inten    --      4.6937                 5.3233                25.7545

                     64                     65                     66
                      A                      A                      A
 Frequencies --   1385.2946              1389.3956              1399.0779
 Red. masses --      1.3597                 1.3632                 1.3371
 Frc consts  --      1.5374                 1.5504                 1.5420
 IR Inten    --     18.3554                26.5019                 9.5321

                     67                     68                     69
                      A                      A                      A
 Frequencies --   1412.7931              1423.7086              1442.3422
 Red. masses --      1.4869                 2.2919                 1.0729
 Frc consts  --      1.7486                 2.7371                 1.3151
 IR Inten    --     11.9015                74.7378                40.4533

                     70                     71                     72
                      A                      A                      A
 Frequencies --   1459.1134              1474.8809              1475.1430
 Red. masses --      1.0878                 1.1273                 1.1343
 Frc consts  --      1.3645                 1.4448                 1.4542
 IR Inten    --     27.2860                 2.5436                 2.7329

                     73                     74                     75
                      A                      A                      A
 Frequencies --   1479.1794              1490.2376              1493.3148
 Red. masses --      1.2526                 1.0435                 1.0516
 Frc consts  --      1.6147                 1.3654                 1.3816
 IR Inten    --      7.9029                12.5153                18.0266

                     76                     77                     78
                      A                      A                      A
 Frequencies --   1493.7327              1495.1169              1496.8769
 Red. masses --      1.0449                 1.0438                 1.0584
 Frc consts  --      1.3737                 1.3748                 1.3972
 IR Inten    --     18.5710                22.6874                 6.8759

                     79                     80                     81
                      A                      A                      A
 Frequencies --   1499.5808              1502.4394              1556.9897
 Red. masses --      1.0568                 1.0937                 3.1799
 Frc consts  --      1.4002                 1.4545                 4.5418
 IR Inten    --     13.6211                 4.6859               230.8516

                     82                     83                     84
                      A                      A                      A
 Frequencies --   1639.6403              1704.1075              3012.3838
 Red. masses --      6.4352                 7.3770                 1.0584
 Frc consts  --     10.1932                12.6219                 5.6585
 IR Inten    --    333.4418                66.7446               110.2768

                     85                     86                     87
                      A                      A                      A
 Frequencies --   3013.5242              3015.7714              3022.1664
 Red. masses --      1.0644                 1.0741                 1.0764
 Frc consts  --      5.6951                 5.7555                 5.7924
 IR Inten    --    434.0118               935.0540                24.6052

                     88                     89                     90
                      A                      A                      A
 Frequencies --   3024.7213              3033.1359              3052.6943
 Red. masses --      1.0418                 1.0356                 1.0601
 Frc consts  --      5.6155                 5.6136                 5.8204
 IR Inten    --     40.9965                24.4174                19.3966

                     91                     92                     93
                      A                      A                      A
 Frequencies --   3066.9994              3085.3325              3098.4405
 Red. masses --      1.0436                 1.1029                 1.1052
 Frc consts  --      5.7838                 6.1856                 6.2516
 IR Inten    --      1.4821                36.4929                29.4020

                     94                     95                     96
                      A                      A                      A
 Frequencies --   3108.5052              3110.3429              3152.0431
 Red. masses --      1.1073                 1.1063                 1.0907
 Frc consts  --      6.3038                 6.3057                 6.3847
 IR Inten    --     16.4370                25.3491                 3.2681

                     97                     98                     99
                      A                      A                      A
 Frequencies --   3160.2918              3164.9872              3173.3372
 Red. masses --      1.0880                 1.1001                 1.1009
 Frc consts  --      6.4024                 6.4926                 6.5319
 IR Inten    --      1.6781                 8.8555                 5.2426

                    100                    101                    102
                      A                      A                      A
 Frequencies --   3189.9208              3206.3890              3242.3335
 Red. masses --      1.1012                 1.1073                 1.0932
 Frc consts  --      6.6023                 6.7072                 6.7711
 IR Inten    --      2.9824                 2.0526                 9.7501

 - Thermochemistry -
 -------------------
 Temperature   298.150 Kelvin.  Pressure   1.00000 Atm.
 Atom     1 has atomic number  6 and mass  12.00000

 Molecular mass:   247.11816 amu.
 Principal axes and moments of inertia in atomic units:
                           1         2         3
     Eigenvalues --  3143.346664921.214045765.54244
           X            0.99995   0.00650  -0.00735
           Y           -0.00645   0.99996   0.00611
           Z            0.00739  -0.00606   0.99995
 This molecule is an asymmetric top.
 Rotational symmetry number  1.
 Warning -- assumption of classical behavior for rotation
           may cause significant error
 Rotational temperatures (Kelvin)      0.02755     0.01760     0.01502
 Rotational constants (GHZ):           0.57415     0.36673     0.31302
 Zero-point vibrational energy     798307.5 (Joules/Mol)
                                  190.80008 (Kcal/Mol)
 Warning -- explicit consideration of  28 degrees of freedom as
           vibrations may cause significant error
 Vibrational temperatures:     60.36    68.12    70.99    90.65    96.08
          (Kelvin)            114.20   135.91   167.42   188.17   229.83
                              250.50   284.80   293.61   327.61   340.38
                              365.90   377.08   439.95   473.29   519.38
                              523.32   552.81   620.52   670.33   708.54
                              742.38   837.84   871.61   911.97   971.85
                              982.88  1087.59  1143.67  1170.14  1285.62
                             1297.30  1333.65  1390.08  1428.87  1454.20
                             1482.08  1501.65  1517.05  1525.83  1580.71
                             1619.54  1641.78  1669.57  1684.14  1688.10
                             1693.02  1697.66  1717.96  1757.27  1767.54
                             1783.94  1834.64  1877.90  1882.78  1883.96
                             1913.76  1929.36  1956.73  1993.13  1999.03
                             2012.96  2032.69  2048.40  2075.21  2099.34
                             2122.02  2122.40  2128.21  2144.12  2148.54
                             2149.15  2151.14  2153.67  2157.56  2161.67
                             2240.16  2359.07  2451.83  4334.14  4335.78
                             4339.02  4348.22  4351.89  4364.00  4392.14
                             4412.72  4439.10  4457.96  4472.44  4475.08
                             4535.08  4546.95  4553.70  4565.72  4589.58
                             4613.27  4664.99

 Zero-point correction=                           0.304059 (Hartree/Particle)
 Thermal correction to Energy=                    0.322804
 Thermal correction to Enthalpy=                  0.323748
 Thermal correction to Gibbs Free Energy=         0.256242
 Sum of electronic and zero-point Energies=           -880.607179
 Sum of electronic and thermal Energies=              -880.588435
 Sum of electronic and thermal Enthalpies=            -880.587491
 Sum of electronic and thermal Free Energies=         -880.654997

                     E (Thermal)             CV                S
                      KCal/Mol        Cal/Mol-Kelvin    Cal/Mol-Kelvin
 Total                  202.562             67.263            142.079
 Electronic               0.000              0.000              0.000
 Translational            0.889              2.981             42.415
 Rotational               0.889              2.981             32.856
 Vibrational            200.785             61.301             66.808
 Vibration     1          0.595              1.980              5.165
 Vibration     2          0.595              1.979              4.925
 Vibration     3          0.595              1.978              4.844
 Vibration     4          0.597              1.972              4.361
 Vibration     5          0.598              1.970              4.246
 Vibration     6          0.600              1.963              3.906
 Vibration     7          0.603              1.953              3.565
 Vibration     8          0.608              1.936              3.160
 Vibration     9          0.612              1.923              2.934
 Vibration    10          0.622              1.892              2.553
 Vibration    11          0.627              1.874              2.391
 Vibration    12          0.637              1.843              2.152
 Vibration    13          0.640              1.834              2.096
 Vibration    14          0.651              1.799              1.897
 Vibration    15          0.655              1.785              1.828
 Vibration    16          0.665              1.756              1.700
 Vibration    17          0.669              1.742              1.648
 Vibration    18          0.696              1.663              1.385
 Vibration    19          0.712              1.618              1.265
 Vibration    20          0.735              1.553              1.118
 Vibration    21          0.737              1.547              1.106
 Vibration    22          0.753              1.504              1.023
 Vibration    23          0.792              1.402              0.854
 Vibration    24          0.823              1.326              0.749
 Vibration    25          0.848              1.267              0.677
 Vibration    26          0.871              1.215              0.619
 Vibration    27          0.939              1.070              0.481
 Vibration    28          0.964              1.020              0.440

 Normal termination of Gaussian 09 at Tue Jan 10 14:54:37 2017.
