 Gaussian 09, Revision D.01,
 Gaussian 09:  EM64L-G09RevD.01 24-Apr-2013

 -------------------------------------------------------------------
 #P PBE1PBE/6-311+G(d,p) opt optcyc=999 freq EmpiricalDispersion=GD3
 -------------------------------------------------------------------

 -------
 disacch
 -------
 Symbolic Z-matrix:
 Charge =  1 Multiplicity = 1

 SCF Done:  E(RPBE1PBE) =  -880.927730232     A.U. after   19 cycles
 SCF Done:  E(RPBE1PBE) =  -880.931794828     A.U. after   14 cycles
 SCF Done:  E(RPBE1PBE) =  -880.932254950     A.U. after   18 cycles
 SCF Done:  E(RPBE1PBE) =  -880.932610582     A.U. after   17 cycles
 SCF Done:  E(RPBE1PBE) =  -880.932820771     A.U. after   17 cycles
 SCF Done:  E(RPBE1PBE) =  -880.932953111     A.U. after   13 cycles
 SCF Done:  E(RPBE1PBE) =  -880.933015698     A.U. after   11 cycles
 SCF Done:  E(RPBE1PBE) =  -880.933035345     A.U. after   17 cycles
 SCF Done:  E(RPBE1PBE) =  -880.933039769     A.U. after   13 cycles
 SCF Done:  E(RPBE1PBE) =  -880.933042153     A.U. after    9 cycles
 SCF Done:  E(RPBE1PBE) =  -880.933042059     A.U. after   14 cycles
 Optimization completed.
    -- Stationary point found.
 Normal termination of Gaussian 09 at Sun Jan  8 09:06:56 2017.

 ----------------------------------------------------------------------
 #P Geom=AllCheck Guess=TCheck SCRF=Check GenChk RPBE1PBE/6-311+G(d,p)
 Freq
 ----------------------------------------------------------------------

 Structure from the checkpoint file:  "Ac-4_cGalMe.chk"
 -------
 disacch
 -------
 Charge =  1 Multiplicity = 1

                         Standard orientation:
 ---------------------------------------------------------------------
 Center     Atomic      Atomic             Coordinates (Angstroms)
 Number     Number       Type             X           Y           Z
 ---------------------------------------------------------------------
      1          6           0        2.207627   -1.384373   -0.910557
      2          6           0        0.735408   -1.139033   -0.683307
      3          6           0        0.213275    0.217537   -1.117349
      4          6           0       -1.304950    0.295615   -0.963439
      5          6           0       -1.754830   -0.472966    0.296345
      6          6           0       -0.558656   -0.638599    1.233141
      7          8           0        0.479425   -1.327212    0.720505
      8          8           0       -1.661023    1.643374   -0.940778
      9          8           0        0.836910    1.296303   -0.348201
     10          8           0        2.955805   -0.384770   -0.283996
     11          1           0        2.395472   -1.410106   -1.996189
     12          1           0        2.448571   -2.378990   -0.506511
     13          1           0        0.163764   -1.891887   -1.241430
     14          1           0        0.516548    0.450369   -2.136885
     15          1           0       -1.743195   -0.233811   -1.821778
     16          1           0       -2.533385    0.100281    0.819204
     17          1           0       -0.802638   -1.050372    2.209940
     18          8           0       -2.212882   -1.721858   -0.122649
     19          6           0        4.348769   -0.623118   -0.357720
     20          1           0        4.844113    0.205713    0.147230
     21          1           0        4.615714   -1.561638    0.144185
     22          1           0        4.689847   -0.662614   -1.400061
     23          6           0       -2.886520   -2.487669    0.866914
     24          1           0       -2.195133   -2.878598    1.622053
     25          1           0       -3.669213   -1.893725    1.354425
     26          1           0       -3.345974   -3.327108    0.347257
     27          6           0       -3.014750    1.892485   -1.294217
     28          1           0       -3.215402    1.553254   -2.316715
     29          1           0       -3.712668    1.399571   -0.607012
     30          1           0       -3.158411    2.970120   -1.234258
     31          6           0        0.579346    1.515452    0.877780
     32          8           0       -0.115569    0.762635    1.636285
     33          6           0        1.170848    2.728914    1.468717
     34          1           0        1.136759    3.547672    0.750216
     35          1           0        2.222839    2.503795    1.680211
     36          1           0        0.667661    2.984825    2.398927
 ---------------------------------------------------------------------

 SCF Done:  E(RPBE1PBE) =  -880.933042059     A.U. after    2 cycles

 The electronic state is 1-A.
 Alpha  occ. eigenvalues --  -19.44879 -19.44402 -19.39273 -19.35931 -19.35848
 Alpha  occ. eigenvalues --  -19.33499 -10.56751 -10.50355 -10.46201 -10.44165
 Alpha  occ. eigenvalues --  -10.43840 -10.43590 -10.40437 -10.38844 -10.38789
 Alpha  occ. eigenvalues --  -10.38331 -10.37002  -1.36833  -1.29015  -1.26293
 Alpha  occ. eigenvalues --   -1.22867  -1.21684  -1.19884  -1.01702  -0.98551
 Alpha  occ. eigenvalues --   -0.95000  -0.90173  -0.88120  -0.85962  -0.83201
 Alpha  occ. eigenvalues --   -0.81129  -0.79105  -0.77667  -0.76971  -0.72814
 Alpha  occ. eigenvalues --   -0.71766  -0.68043  -0.67228  -0.66447  -0.66050
 Alpha  occ. eigenvalues --   -0.64184  -0.63902  -0.63178  -0.62088  -0.61002
 Alpha  occ. eigenvalues --   -0.60602  -0.59772  -0.58595  -0.57917  -0.57477
 Alpha  occ. eigenvalues --   -0.56929  -0.56602  -0.55346  -0.54658  -0.53757
 Alpha  occ. eigenvalues --   -0.52855  -0.52476  -0.51813  -0.48939  -0.48146
 Alpha  occ. eigenvalues --   -0.47550  -0.46472  -0.45839  -0.42681  -0.41563
 Alpha  occ. eigenvalues --   -0.39924
 Alpha virt. eigenvalues --   -0.19341  -0.11303  -0.09974  -0.09624  -0.08808
 Alpha virt. eigenvalues --   -0.08225  -0.07656  -0.06693  -0.06352  -0.06234
 Alpha virt. eigenvalues --   -0.05867  -0.05350  -0.05151  -0.04530  -0.04091

 Mulliken charges:
               1
     1  C   -0.872952
     2  C   -0.031289
     3  C    0.097200
     4  C   -0.488309
     5  C   -0.183591
     6  C   -0.265628
     7  O    0.090381
     8  O    0.029891
     9  O    0.333797
    10  O   -0.132177
    11  H    0.195878
    12  H    0.210590
    13  H    0.272416
    14  H    0.245738
    15  H    0.258223
    16  H    0.237237
    17  H    0.269222
    18  O    0.048321
    19  C   -0.268612
    20  H    0.178849
    21  H    0.169129
    22  H    0.165830
    23  C   -0.287540
    24  H    0.174511
    25  H    0.173312
    26  H    0.203039
    27  C   -0.275365
    28  H    0.179390
    29  H    0.165912
    30  H    0.198730
    31  C    0.067533
    32  O    0.292352
    33  C   -1.162795
    34  H    0.238139
    35  H    0.243603
    36  H    0.229034
 Sum of Mulliken charges =   1.00000

 Dipole moment (field-independent basis, Debye):
    X=             -0.5902    Y=              1.0579    Z=              0.4798  Tot=              1.3030
 Quadrupole moment (field-independent basis, Debye-Ang):
   XX=            -65.8621   YY=            -79.0882   ZZ=            -85.6224
   XY=              1.7156   XZ=             -2.0677   YZ=              3.8695

  Exact polarizability: 152.772   5.064 143.378  -0.717   3.363 126.124
 Approx polarizability: 180.931   7.285 190.648  -4.595   5.439 187.455

                      1                      2                      3
                      A                      A                      A
 Frequencies --     41.5640                46.7225                58.8408
 Red. masses --      4.0603                 3.1996                 1.1767
 Frc consts  --      0.0041                 0.0041                 0.0024
 IR Inten    --      1.6586                 0.3324                 1.7462

                      4                      5                      6
                      A                      A                      A
 Frequencies --     72.1902                80.0309                99.9810
 Red. masses --      2.1922                 3.4953                 2.3768
 Frc consts  --      0.0067                 0.0132                 0.0140
 IR Inten    --      3.4407                 1.6587                 1.4128

                      7                      8                      9
                      A                      A                      A
 Frequencies --    106.7034               114.3187               159.7721
 Red. masses --      2.3102                 2.0344                 1.5798
 Frc consts  --      0.0155                 0.0157                 0.0238
 IR Inten    --      1.7442                 5.7146                 0.7382

                     10                     11                     12
                      A                      A                      A
 Frequencies --    168.3332               186.3357               200.9594
 Red. masses --      2.7813                 1.9693                 1.9328
 Frc consts  --      0.0464                 0.0403                 0.0460
 IR Inten    --      0.5996                 1.8455                 0.5805

                     13                     14                     15
                      A                      A                      A
 Frequencies --    224.3286               240.4479               255.5649
 Red. masses --      1.7757                 3.6450                 2.6561
 Frc consts  --      0.0526                 0.1242                 0.1022
 IR Inten    --      5.7977                 5.8366                 0.9924

                     16                     17                     18
                      A                      A                      A
 Frequencies --    290.7986               303.0941               321.5180
 Red. masses --      4.0209                 3.6076                 4.8831
 Frc consts  --      0.2003                 0.1953                 0.2974
 IR Inten    --      4.6338                 0.3899                 0.6460

                     19                     20                     21
                      A                      A                      A
 Frequencies --    328.8132               351.2984               364.8021
 Red. masses --      4.5226                 3.1266                 4.8005
 Frc consts  --      0.2881                 0.2273                 0.3764
 IR Inten    --      6.0120                 2.6960                 0.3640

                     22                     23                     24
                      A                      A                      A
 Frequencies --    403.4369               449.2139               495.4175
 Red. masses --      4.9140                 5.1936                 3.6158
 Frc consts  --      0.4712                 0.6175                 0.5229
 IR Inten    --      5.9747                 4.8264                10.4563

                     25                     26                     27
                      A                      A                      A
 Frequencies --    509.6287               612.1169               626.8581
 Red. masses --      4.6090                 3.5303                 4.4713
 Frc consts  --      0.7053                 0.7793                 1.0352
 IR Inten    --      5.7298                 4.7167                 0.6372

                     28                     29                     30
                      A                      A                      A
 Frequencies --    664.6133               745.3846               753.0846
 Red. masses --      5.3375                 5.5414                 5.8761
 Frc consts  --      1.3891                 1.8140                 1.9635
 IR Inten    --     28.1789                99.9750                31.7996

                     31                     32                     33
                      A                      A                      A
 Frequencies --    790.7870               823.3494               858.7858
 Red. masses --      4.9868                 6.4304                 3.3487
 Frc consts  --      1.8373                 2.5684                 1.4551
 IR Inten    --     30.6699                17.4317                 3.9005

                     34                     35                     36
                      A                      A                      A
 Frequencies --    895.3874               931.8637               957.9364
 Red. masses --      3.1818                 2.9888                 3.5345
 Frc consts  --      1.5030                 1.5292                 1.9109
 IR Inten    --      0.5476                16.4361                 4.6655

                     37                     38                     39
                      A                      A                      A
 Frequencies --    989.2538              1003.2908              1009.9118
 Red. masses --      2.5032                 4.2664                 2.5622
 Frc consts  --      1.4433                 2.5302                 1.5397
 IR Inten    --      6.3922                32.7952                34.3759

                     40                     41                     42
                      A                      A                      A
 Frequencies --   1035.7975              1050.9552              1052.4315
 Red. masses --      2.5871                 2.1806                 1.7375
 Frc consts  --      1.6353                 1.4190                 1.1339
 IR Inten    --     27.9923                38.3348                 2.0582

                     43                     44                     45
                      A                      A                      A
 Frequencies --   1078.5126              1091.2671              1116.1335
 Red. masses --      2.6595                 3.1428                 1.8249
 Frc consts  --      1.8226                 2.2051                 1.3394
 IR Inten    --     26.0039                92.4082                41.2379

                     46                     47                     48
                      A                      A                      A
 Frequencies --   1146.5741              1164.3810              1173.3554
 Red. masses --      2.1606                 2.4245                 1.4366
 Frc consts  --      1.6735                 1.9367                 1.1653
 IR Inten    --     59.1315                88.8087                25.8573

                     49                     50                     51
                      A                      A                      A
 Frequencies --   1174.9668              1178.6608              1181.3943
 Red. masses --      1.3677                 1.3870                 1.9623
 Frc consts  --      1.1125                 1.1353                 1.6137
 IR Inten    --     11.1918                12.7434                56.0391

                     52                     53                     54
                      A                      A                      A
 Frequencies --   1191.4200              1225.7743              1232.3473
 Red. masses --      2.0092                 2.1607                 2.6374
 Frc consts  --      1.6803                 1.9128                 2.3599
 IR Inten    --     81.9282               102.3968                38.2140

                     55                     56                     57
                      A                      A                      A
 Frequencies --   1236.6538              1237.5968              1272.5343
 Red. masses --      2.4641                 2.2723                 1.3961
 Frc consts  --      2.2203                 2.0506                 1.3320
 IR Inten    --     44.6103                64.2170                13.9566

                     58                     59                     60
                      A                      A                      A
 Frequencies --   1293.5404              1313.9683              1319.3240
 Red. masses --      1.2201                 1.4377                 1.2446
 Frc consts  --      1.2028                 1.4625                 1.2764
 IR Inten    --      7.4728                13.2680                12.3918

                     61                     62                     63
                      A                      A                      A
 Frequencies --   1332.8344              1354.3396              1363.6909
 Red. masses --      1.5189                 1.2611                 1.2991
 Frc consts  --      1.5898                 1.3629                 1.4234
 IR Inten    --     20.1815                24.9464                24.9537

                     64                     65                     66
                      A                      A                      A
 Frequencies --   1383.2736              1390.2259              1402.0244
 Red. masses --      1.2909                 1.6408                 1.3192
 Frc consts  --      1.4553                 1.8684                 1.5278
 IR Inten    --     13.1156                23.1726                12.0518

                     67                     68                     69
                      A                      A                      A
 Frequencies --   1418.7036              1426.8555              1437.2251
 Red. masses --      1.6366                 1.5337                 1.4110
 Frc consts  --      1.9408                 1.8397                 1.7173
 IR Inten    --     12.4751                 7.7551                46.9561

                     70                     71                     72
                      A                      A                      A
 Frequencies --   1440.3398              1453.5081              1472.9605
 Red. masses --      1.3144                 1.1826                 1.1165
 Frc consts  --      1.6066                 1.4721                 1.4272
 IR Inten    --     23.6175                59.8341                 6.6089

                     73                     74                     75
                      A                      A                      A
 Frequencies --   1477.4860              1478.1542              1486.2289
 Red. masses --      1.1425                 1.1535                 1.0416
 Frc consts  --      1.4695                 1.4849                 1.3556
 IR Inten    --      4.8213                 3.8180                13.4077

                     76                     77                     78
                      A                      A                      A
 Frequencies --   1490.1046              1491.1192              1492.5761
 Red. masses --      1.0484                 1.0765                 1.0692
 Frc consts  --      1.3715                 1.4102                 1.4034
 IR Inten    --     11.3281                 9.2977                16.3212

                     79                     80                     81
                      A                      A                      A
 Frequencies --   1499.6174              1503.3896              1510.8679
 Red. masses --      1.0686                 1.0485                 1.0947
 Frc consts  --      1.4159                 1.3962                 1.4723
 IR Inten    --     10.1737                21.0527                 6.8366

                     82                     83                     84
                      A                      A                      A
 Frequencies --   1522.4401              1633.1608              2995.2835
 Red. masses --      3.9369                 5.5337                 1.0587
 Frc consts  --      5.3763                 8.6961                 5.5965
 IR Inten    --    283.6490               301.6141                27.2823

                     85                     86                     87
                      A                      A                      A
 Frequencies --   3017.8227              3025.2293              3027.3559
 Red. masses --      1.0356                 1.0356                 1.0384
 Frc consts  --      5.5570                 5.5844                 5.6070
 IR Inten    --     51.9623                28.6176                26.3655

                     88                     89                     90
                      A                      A                      A
 Frequencies --   3034.8547              3035.8751              3039.7124
 Red. masses --      1.0825                 1.0831                 1.1032
 Frc consts  --      5.8743                 5.8817                 6.0058
 IR Inten    --      3.1660                21.1813                21.0617

                     91                     92                     93
                      A                      A                      A
 Frequencies --   3066.6058              3067.4990              3084.1612
 Red. masses --      1.0837                 1.0435                 1.1063
 Frc consts  --      6.0044                 5.7854                 6.2003
 IR Inten    --      8.3533                14.4563                26.0549

                     94                     95                     96
                      A                      A                      A
 Frequencies --   3097.3364              3098.8563              3154.8881
 Red. masses --      1.1067                 1.1061                 1.0910
 Frc consts  --      6.2555                 6.2584                 6.3980
 IR Inten    --     25.5326                24.2636                 3.2627

                     97                     98                     99
                      A                      A                      A
 Frequencies --   3162.4572              3163.0164              3172.9202
 Red. masses --      1.0893                 1.1002                 1.0999
 Frc consts  --      6.4185                 6.4851                 6.5240
 IR Inten    --      0.7202                11.6218                 5.6908

                    100                    101                    102
                      A                      A                      A
 Frequencies --   3175.8514              3178.2273              3207.6653
 Red. masses --      1.1013                 1.0917                 1.1072
 Frc consts  --      6.5443                 6.4970                 6.7119
 IR Inten    --      5.9006                 2.6461                 1.9777

 - Thermochemistry -
 -------------------
 Temperature   298.150 Kelvin.  Pressure   1.00000 Atm.
 Atom     1 has atomic number  6 and mass  12.00000

 Molecular mass:   247.11816 amu.
 Principal axes and moments of inertia in atomic units:
                           1         2         3
     Eigenvalues --  2721.092414495.392065516.51866
           X            0.99999  -0.00231  -0.00392
           Y            0.00234   0.99998   0.00645
           Z            0.00390  -0.00646   0.99997
 This molecule is an asymmetric top.
 Rotational symmetry number  1.
 Warning -- assumption of classical behavior for rotation
           may cause significant error
 Rotational temperatures (Kelvin)      0.03183     0.01927     0.01570
 Rotational constants (GHZ):           0.66324     0.40146     0.32715
 Zero-point vibrational energy     804913.7 (Joules/Mol)
                                  192.37900 (Kcal/Mol)
 Warning -- explicit consideration of  26 degrees of freedom as
           vibrations may cause significant error
 Vibrational temperatures:     59.80    67.22    84.66   103.87   115.15
          (Kelvin)            143.85   153.52   164.48   229.88   242.19
                              268.10   289.14   322.76   345.95   367.70
                              418.39   436.08   462.59   473.09   505.44
                              524.87   580.45   646.32   712.79   733.24
                              880.70   901.91   956.23  1072.44  1083.52
                             1137.76  1184.61  1235.60  1288.26  1340.74
                             1378.26  1423.31  1443.51  1453.04  1490.28
                             1512.09  1514.21  1551.74  1570.09  1605.87
                             1649.66  1675.28  1688.19  1690.51  1695.83
                             1699.76  1714.19  1763.61  1773.07  1779.27
                             1780.62  1830.89  1861.11  1890.50  1898.21
                             1917.65  1948.59  1962.04  1990.22  2000.22
                             2017.20  2041.20  2052.92  2067.84  2072.33
                             2091.27  2119.26  2125.77  2126.73  2138.35
                             2143.93  2145.39  2147.48  2157.61  2163.04
                             2173.80  2190.45  2349.75  4309.54  4341.97
                             4352.62  4355.68  4366.47  4367.94  4373.46
                             4412.16  4413.44  4437.41  4456.37  4458.56
                             4539.17  4550.06  4550.87  4565.12  4569.34
                             4572.75  4615.11

 Zero-point correction=                           0.306575 (Hartree/Particle)
 Thermal correction to Energy=                    0.324508
 Thermal correction to Enthalpy=                  0.325453
 Thermal correction to Gibbs Free Energy=         0.260168
 Sum of electronic and zero-point Energies=           -880.626467
 Sum of electronic and thermal Energies=              -880.608534
 Sum of electronic and thermal Enthalpies=            -880.607589
 Sum of electronic and thermal Free Energies=         -880.672874

                     E (Thermal)             CV                S
                      KCal/Mol        Cal/Mol-Kelvin    Cal/Mol-Kelvin
 Total                  203.632             65.015            137.403
 Electronic               0.000              0.000              0.000
 Translational            0.889              2.981             42.415
 Rotational               0.889              2.981             32.579
 Vibrational            201.855             59.054             62.410
 Vibration     1          0.594              1.981              5.183
 Vibration     2          0.595              1.979              4.952
 Vibration     3          0.596              1.974              4.496
 Vibration     4          0.598              1.967              4.093
 Vibration     5          0.600              1.963              3.890
 Vibration     6          0.604              1.949              3.455
 Vibration     7          0.606              1.944              3.328
 Vibration     8          0.607              1.938              3.194
 Vibration     9          0.622              1.892              2.552
 Vibration    10          0.625              1.881              2.454
 Vibration    11          0.632              1.859              2.264
 Vibration    12          0.638              1.839              2.124
 Vibration    13          0.649              1.804              1.924
 Vibration    14          0.658              1.778              1.800
 Vibration    15          0.666              1.753              1.692
 Vibration    16          0.687              1.691              1.469
 Vibration    17          0.695              1.668              1.400
 Vibration    18          0.707              1.632              1.302
 Vibration    19          0.712              1.618              1.266
 Vibration    20          0.728              1.573              1.160
 Vibration    21          0.738              1.545              1.102
 Vibration    22          0.769              1.463              0.950
 Vibration    23          0.808              1.363              0.798
 Vibration    24          0.851              1.260              0.670
 Vibration    25          0.865              1.229              0.634
 Vibration    26          0.971              1.006              0.429

 Normal termination of Gaussian 09 at Sun Jan  8 09:30:56 2017.
