 Gaussian 09, Revision D.01,
 Gaussian 09:  EM64L-G09RevD.01 24-Apr-2013

 -------------------------------------------------------------------
 #P PBE1PBE/6-311+G(d,p) opt optcyc=999 freq EmpiricalDispersion=GD3
 -------------------------------------------------------------------

 -------
 disacch
 -------
 Symbolic Z-matrix:
 Charge =  1 Multiplicity = 1

 SCF Done:  E(RPBE1PBE) =  -880.913709094     A.U. after   16 cycles
 SCF Done:  E(RPBE1PBE) =  -880.917581878     A.U. after   15 cycles
 SCF Done:  E(RPBE1PBE) =  -880.915533707     A.U. after   19 cycles
 SCF Done:  E(RPBE1PBE) =  -880.918105755     A.U. after   14 cycles
 SCF Done:  E(RPBE1PBE) =  -880.917867063     A.U. after   13 cycles
 SCF Done:  E(RPBE1PBE) =  -880.918376113     A.U. after    9 cycles
 SCF Done:  E(RPBE1PBE) =  -880.918686455     A.U. after   11 cycles
 SCF Done:  E(RPBE1PBE) =  -880.918601984     A.U. after   19 cycles
 SCF Done:  E(RPBE1PBE) =  -880.918829053     A.U. after   11 cycles
 SCF Done:  E(RPBE1PBE) =  -880.918850722     A.U. after   12 cycles
 SCF Done:  E(RPBE1PBE) =  -880.918855546     A.U. after   12 cycles
 SCF Done:  E(RPBE1PBE) =  -880.918856028     A.U. after    9 cycles
 SCF Done:  E(RPBE1PBE) =  -880.918855781     A.U. after   14 cycles
 SCF Done:  E(RPBE1PBE) =  -880.918855871     A.U. after   11 cycles
 SCF Done:  E(RPBE1PBE) =  -880.918856166     A.U. after   10 cycles
 SCF Done:  E(RPBE1PBE) =  -880.918857574     A.U. after   10 cycles
 SCF Done:  E(RPBE1PBE) =  -880.918859089     A.U. after    9 cycles
 SCF Done:  E(RPBE1PBE) =  -880.918859832     A.U. after   10 cycles
 SCF Done:  E(RPBE1PBE) =  -880.918859944     A.U. after   13 cycles
 Optimization completed.
    -- Stationary point found.
 Normal termination of Gaussian 09 at Tue Jan 10 09:42:11 2017.

 ----------------------------------------------------------------------
 #P Geom=AllCheck Guess=TCheck SCRF=Check GenChk RPBE1PBE/6-311+G(d,p)
 Freq
 ----------------------------------------------------------------------

 Structure from the checkpoint file:  "Ac-4_cGalMe.chk"
 -------
 disacch
 -------
 Charge =  1 Multiplicity = 1

                         Standard orientation:
 ---------------------------------------------------------------------
 Center     Atomic      Atomic             Coordinates (Angstroms)
 Number     Number       Type             X           Y           Z
 ---------------------------------------------------------------------
      1          6           0       -0.209681    1.882817    0.261842
      2          6           0       -0.324169    1.065658   -1.027430
      3          6           0       -0.643944   -0.431913   -0.913981
      4          6           0        0.193669   -1.082175    0.183281
      5          6           0        1.670744   -0.663267    0.005568
      6          6           0        1.801727    0.784706   -0.460812
      7          8           0        1.031729    1.126903   -1.520414
      8          8           0       -0.312390   -0.687902    1.431559
      9          8           0       -1.997372   -0.834684   -0.779993
     10          8           0        1.217026    1.651298    0.662393
     11          1           0       -0.810127    1.537187    1.092146
     12          1           0       -0.318456    2.949092    0.068566
     13          1           0       -0.954888    1.564536   -1.757418
     14          1           0       -0.315212   -0.852992   -1.868376
     15          1           0        0.130722   -2.171612    0.065524
     16          1           0        2.191550   -0.764291    0.968829
     17          1           0        2.837860    1.086168   -0.614621
     18          8           0        2.298892   -1.387935   -1.009804
     19          6           0        1.976541    2.851099    0.996699
     20          1           0        2.939710    2.514705    1.375808
     21          1           0        2.081645    3.472264    0.105245
     22          1           0        1.420509    3.361767    1.780514
     23          6           0        2.885789   -2.607527   -0.580010
     24          1           0        2.141761   -3.283028   -0.141047
     25          1           0        3.309659   -3.076431   -1.466633
     26          1           0        3.683501   -2.421861    0.149357
     27          6           0       -0.152062   -1.656519    2.453814
     28          1           0       -0.692528   -2.577215    2.204557
     29          1           0        0.904938   -1.895768    2.627655
     30          1           0       -0.570467   -1.228839    3.364305
     31          6           0       -2.957207   -0.009370   -0.311039
     32          8           0       -2.768629    1.155887   -0.070334
     33          6           0       -4.249959   -0.736821   -0.159472
     34          1           0       -4.153784   -1.478824    0.637810
     35          1           0       -4.491119   -1.274320   -1.078669
     36          1           0       -5.038012   -0.029203    0.088435
 ---------------------------------------------------------------------

 SCF Done:  E(RPBE1PBE) =  -880.918859944     A.U. after    1 cycles

 The electronic state is 1-A.
 Alpha  occ. eigenvalues --  -19.49043 -19.40145 -19.37916 -19.35624 -19.35283
 Alpha  occ. eigenvalues --  -19.31522 -10.51486 -10.47886 -10.45672 -10.45192
 Alpha  occ. eigenvalues --  -10.45131 -10.43726 -10.43398 -10.42552 -10.38844
 Alpha  occ. eigenvalues --  -10.38741 -10.33294  -1.35156  -1.27321  -1.26172
 Alpha  occ. eigenvalues --   -1.22500  -1.21387  -1.18095  -0.99890  -0.98036
 Alpha  occ. eigenvalues --   -0.94694  -0.89966  -0.87562  -0.85880  -0.83301
 Alpha  occ. eigenvalues --   -0.82330  -0.81232  -0.76305  -0.75035  -0.73407
 Alpha  occ. eigenvalues --   -0.69878  -0.67388  -0.67024  -0.66727  -0.65605
 Alpha  occ. eigenvalues --   -0.65346  -0.63486  -0.62352  -0.62233  -0.61550
 Alpha  occ. eigenvalues --   -0.60291  -0.59760  -0.59191  -0.58848  -0.57989
 Alpha  occ. eigenvalues --   -0.56157  -0.55551  -0.54980  -0.53993  -0.52508
 Alpha  occ. eigenvalues --   -0.52203  -0.51686  -0.51307  -0.50095  -0.48450
 Alpha  occ. eigenvalues --   -0.47751  -0.46522  -0.44001  -0.43819  -0.41663
 Alpha  occ. eigenvalues --   -0.40133
 Alpha virt. eigenvalues --   -0.13442  -0.11665  -0.11055  -0.10048  -0.09508
 Alpha virt. eigenvalues --   -0.09212  -0.08847  -0.07282  -0.07011  -0.06931
 Alpha virt. eigenvalues --   -0.06441  -0.05516  -0.05304  -0.04982  -0.04130

 Mulliken charges:
               1
     1  C   -0.461099
     2  C   -0.185881
     3  C   -0.611147
     4  C   -0.224248
     5  C   -0.285121
     6  C   -0.576179
     7  O    0.103391
     8  O    0.007722
     9  O    0.172677
    10  O    0.197352
    11  H    0.332414
    12  H    0.261116
    13  H    0.282887
    14  H    0.287874
    15  H    0.221051
    16  H    0.216233
    17  H    0.279469
    18  O    0.027122
    19  C   -0.238221
    20  H    0.223592
    21  H    0.238921
    22  H    0.222993
    23  C   -0.266439
    24  H    0.169444
    25  H    0.202021
    26  H    0.173258
    27  C   -0.245174
    28  H    0.181249
    29  H    0.166579
    30  H    0.197821
    31  C    0.298429
    32  O   -0.207529
    33  C   -0.798490
    34  H    0.206774
    35  H    0.213315
    36  H    0.215822
 Sum of Mulliken charges =   1.00000

 Dipole moment (field-independent basis, Debye):
    X=              4.0053    Y=              1.9241    Z=              2.8577  Tot=              5.2831
 Quadrupole moment (field-independent basis, Debye-Ang):
   XX=            -69.1575   YY=            -69.4116   ZZ=            -92.0098
   XY=              9.9090   XZ=              6.8046   YZ=              1.8036

  Exact polarizability: 155.579   0.108 141.998  -1.833   3.226 120.744
 Approx polarizability: 190.579  -2.452 191.757  -3.952   7.750 176.153

                      1                      2                      3
                      A                      A                      A
 Frequencies --     46.4569                52.4667                68.7259
 Red. masses --      1.4082                 3.0854                 2.2054
 Frc consts  --      0.0018                 0.0050                 0.0061
 IR Inten    --      2.1090                 2.5143                 0.5072

                      4                      5                      6
                      A                      A                      A
 Frequencies --     70.8831                79.4532                88.1041
 Red. masses --      3.8936                 3.0769                 2.4434
 Frc consts  --      0.0115                 0.0114                 0.0112
 IR Inten    --      0.7116                 2.3849                 1.3819

                      7                      8                      9
                      A                      A                      A
 Frequencies --    103.3523               141.1102               153.1915
 Red. masses --      2.9182                 2.3218                 2.1152
 Frc consts  --      0.0184                 0.0272                 0.0292
 IR Inten    --      1.8983                 3.9791                 1.7541

                     10                     11                     12
                      A                      A                      A
 Frequencies --    164.5114               181.5777               204.3968
 Red. masses --      1.2884                 2.6600                 2.9912
 Frc consts  --      0.0205                 0.0517                 0.0736
 IR Inten    --      0.7047                 7.7293                 2.2786

                     13                     14                     15
                      A                      A                      A
 Frequencies --    218.5827               235.8335               270.7935
 Red. masses --      1.6372                 2.2318                 5.0343
 Frc consts  --      0.0461                 0.0731                 0.2175
 IR Inten    --      3.8434                 1.6263                 8.1604

                     16                     17                     18
                      A                      A                      A
 Frequencies --    283.0959               292.8452               319.4669
 Red. masses --      3.1441                 3.7114                 3.9774
 Frc consts  --      0.1485                 0.1875                 0.2392
 IR Inten    --      7.9235                 4.8687                 0.8450

                     19                     20                     21
                      A                      A                      A
 Frequencies --    343.2049               367.8459               402.3390
 Red. masses --      3.1387                 4.6337                 3.4248
 Frc consts  --      0.2178                 0.3694                 0.3266
 IR Inten    --      1.6165                 2.5792                 0.9654

                     22                     23                     24
                      A                      A                      A
 Frequencies --    437.9692               485.2747               506.7339
 Red. masses --      3.6267                 5.2808                 4.8903
 Frc consts  --      0.4099                 0.7327                 0.7399
 IR Inten    --     14.3038                18.7743                 3.8664

                     25                     26                     27
                      A                      A                      A
 Frequencies --    532.4562               595.5067               609.6460
 Red. masses --      4.0856                 2.8492                 5.1775
 Frc consts  --      0.6825                 0.5953                 1.1338
 IR Inten    --      8.2065                 1.2364                31.0570

                     28                     29                     30
                      A                      A                      A
 Frequencies --    636.5963               700.1772               748.9814
 Red. masses --      6.0046                 5.8156                 4.9590
 Frc consts  --      1.4337                 1.6798                 1.6390
 IR Inten    --     27.1328                 9.7022                49.7184

                     31                     32                     33
                      A                      A                      A
 Frequencies --    766.4681               786.7385               838.5956
 Red. masses --      4.3891                 4.7110                 4.9915
 Frc consts  --      1.5192                 1.7180                 2.0682
 IR Inten    --     44.9020                24.7319                38.5181

                     34                     35                     36
                      A                      A                      A
 Frequencies --    890.5171               903.1285               931.2483
 Red. masses --      3.6562                 3.1500                 3.1016
 Frc consts  --      1.7083                 1.5138                 1.5848
 IR Inten    --      1.1514                37.2812                14.1474

                     37                     38                     39
                      A                      A                      A
 Frequencies --    969.2782               994.3488              1008.9786
 Red. masses --      2.7825                 3.8153                 3.7175
 Frc consts  --      1.5402                 2.2226                 2.2298
 IR Inten    --     17.1344                 5.5634               110.8174

                     40                     41                     42
                      A                      A                      A
 Frequencies --   1014.8795              1026.7784              1060.8690
 Red. masses --      2.8769                 2.0856                 2.8071
 Frc consts  --      1.7459                 1.2955                 1.8614
 IR Inten    --      7.8882                30.5824                47.7723

                     43                     44                     45
                      A                      A                      A
 Frequencies --   1061.4186              1072.0030              1083.4001
 Red. masses --      2.0293                 2.4941                 1.9807
 Frc consts  --      1.3470                 1.6887                 1.3698
 IR Inten    --     26.2527                 6.6912                32.0709

                     46                     47                     48
                      A                      A                      A
 Frequencies --   1137.5745              1151.5211              1164.5214
 Red. masses --      3.3284                 3.5614                 2.5656
 Frc consts  --      2.5378                 2.7823                 2.0499
 IR Inten    --    100.5450               107.5164                98.0736

                     49                     50                     51
                      A                      A                      A
 Frequencies --   1170.5310              1175.8054              1176.7025
 Red. masses --      1.3155                 1.3279                 1.3251
 Frc consts  --      1.0619                 1.0816                 1.0810
 IR Inten    --     15.9162                14.1459                 6.3642

                     52                     53                     54
                      A                      A                      A
 Frequencies --   1190.3567              1192.6970              1217.3439
 Red. masses --      1.6428                 1.3524                 1.9908
 Frc consts  --      1.3715                 1.1335                 1.7382
 IR Inten    --      6.3633                13.3214                 6.5443

                     55                     56                     57
                      A                      A                      A
 Frequencies --   1222.8675              1228.6210              1242.3719
 Red. masses --      2.3696                 2.1792                 1.2183
 Frc consts  --      2.0878                 1.9381                 1.1079
 IR Inten    --     72.0356               149.4348                28.3476

                     58                     59                     60
                      A                      A                      A
 Frequencies --   1266.6615              1280.9643              1281.8092
 Red. masses --      2.5743                 1.6389                 1.4790
 Frc consts  --      2.4335                 1.5844                 1.4318
 IR Inten    --    254.6947                25.4322                50.0011

                     61                     62                     63
                      A                      A                      A
 Frequencies --   1308.1571              1335.4451              1360.9341
 Red. masses --      1.3284                 1.2335                 1.7472
 Frc consts  --      1.3393                 1.2962                 1.9067
 IR Inten    --     37.6204                 5.5947                35.8572

                     64                     65                     66
                      A                      A                      A
 Frequencies --   1366.1257              1385.2207              1392.1241
 Red. masses --      1.2929                 1.4185                 1.3366
 Frc consts  --      1.4217                 1.6037                 1.5262
 IR Inten    --     14.3466                 9.4071                12.7225

                     67                     68                     69
                      A                      A                      A
 Frequencies --   1400.0389              1415.6803              1424.8523
 Red. masses --      1.3973                 1.6637                 1.5717
 Frc consts  --      1.6136                 1.9645                 1.8800
 IR Inten    --     71.3457                26.0509                31.5675

                     70                     71                     72
                      A                      A                      A
 Frequencies --   1432.3737              1459.8985              1463.7179
 Red. masses --      1.5787                 1.0523                 1.1352
 Frc consts  --      1.9083                 1.3214                 1.4329
 IR Inten    --      3.2369                19.0468                 6.0133

                     73                     74                     75
                      A                      A                      A
 Frequencies --   1466.9932              1472.6206              1476.0843
 Red. masses --      1.0480                 1.1277                 1.1297
 Frc consts  --      1.3288                 1.4409                 1.4503
 IR Inten    --     14.3509                 6.9488                 8.1627

                     76                     77                     78
                      A                      A                      A
 Frequencies --   1479.9333              1484.8704              1488.5294
 Red. masses --      1.1072                 1.0533                 1.0541
 Frc consts  --      1.4288                 1.3683                 1.3761
 IR Inten    --     10.2199                12.2697                16.8055

                     79                     80                     81
                      A                      A                      A
 Frequencies --   1489.1363              1490.5436              1499.3394
 Red. masses --      1.0450                 1.0459                 1.0651
 Frc consts  --      1.3654                 1.3691                 1.4107
 IR Inten    --     25.6136                 1.2788                 3.6464

                     82                     83                     84
                      A                      A                      A
 Frequencies --   1500.6949              1828.7236              3018.7076
 Red. masses --      1.0658                11.2532                 1.0366
 Frc consts  --      1.4142                22.1729                 5.5656
 IR Inten    --     22.7394               276.8119                27.8252

                     85                     86                     87
                      A                      A                      A
 Frequencies --   3022.1473              3031.6613              3052.4596
 Red. masses --      1.0379                 1.0811                 1.0849
 Frc consts  --      5.5853                 5.8545                 5.9561
 IR Inten    --     28.3752                23.1322                13.8304

                     88                     89                     90
                      A                      A                      A
 Frequencies --   3076.8631              3080.1034              3088.4356
 Red. masses --      1.0377                 1.0293                 1.1051
 Frc consts  --      5.7879                 5.7532                 6.2107
 IR Inten    --      0.9462                 2.9182                23.5986

                     91                     92                     93
                      A                      A                      A
 Frequencies --   3092.0811              3105.2151              3142.2578
 Red. masses --      1.1065                 1.0857                 1.0662
 Frc consts  --      6.2329                 6.1678                 6.2024
 IR Inten    --     30.6645                 2.3641                 2.5509

                     94                     95                     96
                      A                      A                      A
 Frequencies --   3151.3008              3162.0541              3167.1919
 Red. masses --      1.0990                 1.0927                 1.1006
 Frc consts  --      6.4300                 6.4372                 6.5045
 IR Inten    --      0.2668                 2.9521                 7.3907

                     97                     98                     99
                      A                      A                      A
 Frequencies --   3175.6758              3191.4637              3194.1751
 Red. masses --      1.1003                 1.0908                 1.1096
 Frc consts  --      6.5380                 6.5459                 6.6702
 IR Inten    --      4.8661                 0.5535                 0.2151

                    100                    101                    102
                      A                      A                      A
 Frequencies --   3200.2595              3211.3410              3268.5660
 Red. masses --      1.1046                 1.1105                 1.1070
 Frc consts  --      6.6651                 6.7474                 6.9681
 IR Inten    --      0.9430                 0.2712                 4.9017

 - Thermochemistry -
 -------------------
 Temperature   298.150 Kelvin.  Pressure   1.00000 Atm.
 Atom     1 has atomic number  6 and mass  12.00000

 Molecular mass:   247.11816 amu.
 Principal axes and moments of inertia in atomic units:
                           1         2         3
     Eigenvalues --  2825.870814449.247775417.29976
           X            0.99995   0.00805   0.00646
           Y           -0.00803   0.99996  -0.00323
           Z           -0.00649   0.00318   0.99997
 This molecule is an asymmetric top.
 Rotational symmetry number  1.
 Warning -- assumption of classical behavior for rotation
           may cause significant error
 Rotational temperatures (Kelvin)      0.03065     0.01947     0.01599
 Rotational constants (GHZ):           0.63865     0.40563     0.33314
 Zero-point vibrational energy     805712.3 (Joules/Mol)
                                  192.56986 (Kcal/Mol)
 Warning -- explicit consideration of  27 degrees of freedom as
           vibrations may cause significant error
 Vibrational temperatures:     66.84    75.49    98.88   101.98   114.32
          (Kelvin)            126.76   148.70   203.03   220.41   236.69
                              261.25   294.08   314.49   339.31   389.61
                              407.31   421.34   459.64   493.79   529.25
                              578.88   630.14   698.20   729.08   766.08
                              856.80   877.14   915.92  1007.40  1077.62
                             1102.78  1131.94  1206.55  1281.25  1299.40
                             1339.86  1394.57  1430.64  1451.69  1460.18
                             1477.30  1526.35  1527.14  1542.37  1558.77
                             1636.71  1656.78  1675.48  1684.13  1691.72
                             1693.01  1712.66  1716.02  1751.48  1759.43
                             1767.71  1787.49  1822.44  1843.02  1844.24
                             1882.14  1921.41  1958.08  1965.55  1993.02
                             2002.95  2014.34  2036.85  2050.04  2060.86
                             2100.47  2105.96  2110.67  2118.77  2123.75
                             2129.29  2136.39  2141.66  2142.53  2144.56
                             2157.21  2159.16  2631.12  4343.24  4348.19
                             4361.88  4391.80  4426.91  4431.58  4443.56
                             4448.81  4467.71  4521.00  4534.01  4549.48
                             4556.88  4569.08  4591.80  4595.70  4604.45
                             4620.40  4702.73

 Zero-point correction=                           0.306880 (Hartree/Particle)
 Thermal correction to Energy=                    0.324755
 Thermal correction to Enthalpy=                  0.325699
 Thermal correction to Gibbs Free Energy=         0.260801
 Sum of electronic and zero-point Energies=           -880.611980
 Sum of electronic and thermal Energies=              -880.594105
 Sum of electronic and thermal Enthalpies=            -880.593161
 Sum of electronic and thermal Free Energies=         -880.658059

                     E (Thermal)             CV                S
                      KCal/Mol        Cal/Mol-Kelvin    Cal/Mol-Kelvin
 Total                  203.787             65.417            136.591
 Electronic               0.000              0.000              0.000
 Translational            0.889              2.981             42.415
 Rotational               0.889              2.981             32.588
 Vibrational            202.010             59.455             61.588
 Vibration     1          0.595              1.979              4.963
 Vibration     2          0.596              1.977              4.722
 Vibration     3          0.598              1.969              4.190
 Vibration     4          0.598              1.968              4.129
 Vibration     5          0.600              1.963              3.904
 Vibration     6          0.601              1.958              3.702
 Vibration     7          0.605              1.947              3.390
 Vibration     8          0.615              1.912              2.789
 Vibration     9          0.619              1.899              2.632
 Vibration    10          0.623              1.886              2.497
 Vibration    11          0.630              1.865              2.312
 Vibration    12          0.640              1.834              2.093
 Vibration    13          0.646              1.813              1.971
 Vibration    14          0.655              1.786              1.834
 Vibration    15          0.674              1.727              1.591
 Vibration    16          0.682              1.705              1.515
 Vibration    17          0.688              1.687              1.457
 Vibration    18          0.705              1.636              1.313
 Vibration    19          0.722              1.589              1.197
 Vibration    20          0.740              1.538              1.089
 Vibration    21          0.768              1.465              0.954
 Vibration    22          0.798              1.387              0.833
 Vibration    23          0.841              1.283              0.696
 Vibration    24          0.862              1.235              0.642
 Vibration    25          0.887              1.178              0.582
 Vibration    26          0.953              1.041              0.457
 Vibration    27          0.969              1.011              0.433

 Optimization completed.
    -- Stationary point found.
 Normal termination of Gaussian 09 at Tue Jan 10 10:07:41 2017.
