 Gaussian 09, Revision D.01,
 Gaussian 09:  EM64L-G09RevD.01 24-Apr-2013

 -------------------------------------------------------------------
 #P PBE1PBE/6-311+G(d,p) opt optcyc=999 freq EmpiricalDispersion=GD3
 -------------------------------------------------------------------

 -------
 disacch
 -------
 Symbolic Z-matrix:
 Charge =  1 Multiplicity = 1

 SCF Done:  E(RPBE1PBE) =  -880.928347209     A.U. after   15 cycles
 SCF Done:  E(RPBE1PBE) =  -880.932540748     A.U. after   19 cycles
 SCF Done:  E(RPBE1PBE) =  -880.933109112     A.U. after   19 cycles
 SCF Done:  E(RPBE1PBE) =  -880.933350858     A.U. after   19 cycles
 SCF Done:  E(RPBE1PBE) =  -880.933438820     A.U. after   16 cycles
 SCF Done:  E(RPBE1PBE) =  -880.933473572     A.U. after   16 cycles
 SCF Done:  E(RPBE1PBE) =  -880.933480167     A.U. after   14 cycles
 SCF Done:  E(RPBE1PBE) =  -880.933481586     A.U. after   15 cycles
 SCF Done:  E(RPBE1PBE) =  -880.933481812     A.U. after   13 cycles
 SCF Done:  E(RPBE1PBE) =  -880.933482049     A.U. after   14 cycles
 SCF Done:  E(RPBE1PBE) =  -880.933482134     A.U. after   14 cycles
 SCF Done:  E(RPBE1PBE) =  -880.933482249     A.U. after   15 cycles
 SCF Done:  E(RPBE1PBE) =  -880.933482385     A.U. after   16 cycles
 SCF Done:  E(RPBE1PBE) =  -880.933482503     A.U. after   13 cycles
 SCF Done:  E(RPBE1PBE) =  -880.933482674     A.U. after   14 cycles
 SCF Done:  E(RPBE1PBE) =  -880.933482841     A.U. after   10 cycles
 SCF Done:  E(RPBE1PBE) =  -880.933483001     A.U. after   11 cycles
 Optimization completed.
    -- Stationary point found.
 Normal termination of Gaussian 09 at Sun Jan  8 05:00:28 2017.

 ----------------------------------------------------------------------
 #P Geom=AllCheck Guess=TCheck SCRF=Check GenChk RPBE1PBE/6-311+G(d,p)
 Freq
 ----------------------------------------------------------------------

 Structure from the checkpoint file:  "Ac-4_cGalMe.chk"
 -------
 disacch
 -------
 Charge =  1 Multiplicity = 1

                         Standard orientation:
 ---------------------------------------------------------------------
 Center     Atomic      Atomic             Coordinates (Angstroms)
 Number     Number       Type             X           Y           Z
 ---------------------------------------------------------------------
      1          6           0       -2.470123   -0.735614   -0.491993
      2          6           0       -1.019258   -0.898353   -0.083099
      3          6           0       -0.466102    0.288181    0.669227
      4          6           0        0.979878    0.036418    1.136076
      5          6           0        1.710826   -0.851774    0.120486
      6          6           0        1.027781   -0.705944   -1.239436
      7          8           0       -0.260213   -1.101921   -1.286178
      8          8           0        1.705150    1.221886    1.275987
      9          8           0       -0.487117    1.482567   -0.192091
     10          8           0       -3.180508   -0.508274    0.687810
     11          1           0       -2.797169   -1.650997   -1.004869
     12          1           0       -2.573443    0.102176   -1.199628
     13          1           0       -0.911432   -1.776359    0.563157
     14          1           0       -1.141237    0.559981    1.478721
     15          1           0        0.926555   -0.528582    2.076697
     16          1           0        2.751161   -0.509224    0.042316
     17          1           0        1.564806   -1.148435   -2.075069
     18          8           0        1.613045   -2.167785    0.567441
     19          6           0       -4.582088   -0.455412    0.494498
     20          1           0       -5.031295   -0.272634    1.469887
     21          1           0       -4.856139    0.358425   -0.188937
     22          1           0       -4.960115   -1.404433    0.094955
     23          6           0        2.468293   -3.094210   -0.089524
     24          1           0        2.145688   -3.289160   -1.118760
     25          1           0        3.504716   -2.736569   -0.087211
     26          1           0        2.407787   -4.022444    0.476460
     27          6           0        1.324611    2.011405    2.395727
     28          1           0        0.318667    2.430591    2.271665
     29          1           0        1.363958    1.421090    3.317959
     30          1           0        2.045117    2.825489    2.461091
     31          6           0        0.389914    1.672354   -1.106394
     32          8           0        1.139381    0.775633   -1.605099
     33          6           0        0.518191    3.044015   -1.631050
     34          1           0        1.289446    3.543436   -1.032543
     35          1           0       -0.418626    3.585840   -1.505570
     36          1           0        0.842109    3.028571   -2.670404
 ---------------------------------------------------------------------

 SCF Done:  E(RPBE1PBE) =  -880.933483001     A.U. after    2 cycles

 The electronic state is 1-A.
 Alpha  occ. eigenvalues --  -19.45599 -19.45016 -19.39863 -19.36626 -19.35791
 Alpha  occ. eigenvalues --  -19.33513 -10.57583 -10.50761 -10.45782 -10.44029
 Alpha  occ. eigenvalues --  -10.43817 -10.43709 -10.40200 -10.39431 -10.39134
 Alpha  occ. eigenvalues --  -10.38677 -10.36770  -1.37361  -1.29436  -1.26806
 Alpha  occ. eigenvalues --   -1.23240  -1.21847  -1.19951  -1.01701  -0.98759
 Alpha  occ. eigenvalues --   -0.95658  -0.89664  -0.88922  -0.86082  -0.82822
 Alpha  occ. eigenvalues --   -0.81631  -0.79241  -0.77678  -0.76338  -0.73495
 Alpha  occ. eigenvalues --   -0.72473  -0.68229  -0.67514  -0.66868  -0.66670
 Alpha  occ. eigenvalues --   -0.64296  -0.63961  -0.63199  -0.62093  -0.61472
 Alpha  occ. eigenvalues --   -0.60916  -0.59742  -0.58706  -0.58429  -0.58003
 Alpha  occ. eigenvalues --   -0.57713  -0.56639  -0.56065  -0.55194  -0.54383
 Alpha  occ. eigenvalues --   -0.52355  -0.51974  -0.51669  -0.49185  -0.48489
 Alpha  occ. eigenvalues --   -0.47741  -0.46334  -0.46111  -0.43070  -0.41975
 Alpha  occ. eigenvalues --   -0.39851
 Alpha virt. eigenvalues --   -0.20282  -0.11739  -0.10083  -0.09347  -0.08749
 Alpha virt. eigenvalues --   -0.08165  -0.07847  -0.06897  -0.06621  -0.06300
 Alpha virt. eigenvalues --   -0.06122  -0.05806  -0.05404  -0.04770  -0.04606

 Mulliken charges:
               1
     1  C   -0.324933
     2  C   -1.015404
     3  C    0.222711
     4  C   -0.542419
     5  C    0.050619
     6  C   -0.433187
     7  O    0.118383
     8  O    0.052921
     9  O    0.220771
    10  O   -0.053219
    11  H    0.217625
    12  H    0.198182
    13  H    0.308507
    14  H    0.285744
    15  H    0.258576
    16  H    0.252036
    17  H    0.278648
    18  O    0.030316
    19  C   -0.272927
    20  H    0.186127
    21  H    0.162483
    22  H    0.168737
    23  C   -0.289643
    24  H    0.171409
    25  H    0.176361
    26  H    0.202476
    27  C   -0.297384
    28  H    0.180768
    29  H    0.188718
    30  H    0.205039
    31  C    0.066917
    32  O    0.257502
    33  C   -0.950882
    34  H    0.250380
    35  H    0.237030
    36  H    0.231013
 Sum of Mulliken charges =   1.00000

 Dipole moment (field-independent basis, Debye):
    X=              0.9246    Y=              2.5090    Z=             -1.3477  Tot=              2.9944
 Quadrupole moment (field-independent basis, Debye-Ang):
   XX=            -73.7745   YY=            -72.3230   ZZ=            -86.0481
   XY=             -2.0287   XZ=             -0.9628   YZ=             -0.9638

  Exact polarizability: 145.306  -1.533 149.322  -3.706  -0.616 128.027
 Approx polarizability: 184.063  -0.070 193.237 -11.243  -1.809 182.478

                      1                      2                      3
                      A                      A                      A
 Frequencies --     43.8958                57.5266                73.9632
 Red. masses --      3.7623                 2.6755                 1.1382
 Frc consts  --      0.0043                 0.0052                 0.0037
 IR Inten    --      0.2234                 1.2702                 1.0649

                      4                      5                      6
                      A                      A                      A
 Frequencies --     76.5664                85.1035                88.6387
 Red. masses --      2.4356                 2.9410                 2.3340
 Frc consts  --      0.0084                 0.0125                 0.0108
 IR Inten    --      4.3639                 1.6052                 4.9706

                      7                      8                      9
                      A                      A                      A
 Frequencies --     99.7897               116.1109               159.7178
 Red. masses --      2.8711                 2.4934                 1.8843
 Frc consts  --      0.0168                 0.0198                 0.0283
 IR Inten    --      1.9309                 4.3806                 1.6148

                     10                     11                     12
                      A                      A                      A
 Frequencies --    173.1642               181.0256               206.6664
 Red. masses --      3.3321                 1.3867                 1.5003
 Frc consts  --      0.0589                 0.0268                 0.0378
 IR Inten    --      1.1910                 0.2112                 0.8852

                     13                     14                     15
                      A                      A                      A
 Frequencies --    228.2947               236.0161               260.7671
 Red. masses --      1.5746                 3.6590                 3.9794
 Frc consts  --      0.0484                 0.1201                 0.1594
 IR Inten    --      5.3942                 2.0351                11.4832

                     16                     17                     18
                      A                      A                      A
 Frequencies --    283.2268               303.3409               318.8949
 Red. masses --      3.8720                 5.1879                 4.4013
 Frc consts  --      0.1830                 0.2813                 0.2637
 IR Inten    --      3.7679                 2.5641                 4.3352

                     19                     20                     21
                      A                      A                      A
 Frequencies --    340.2300               355.3008               396.5053
 Red. masses --      3.8650                 4.6899                 5.7273
 Frc consts  --      0.2636                 0.3488                 0.5305
 IR Inten    --      2.7634                 2.3322                 4.0064

                     22                     23                     24
                      A                      A                      A
 Frequencies --    401.0040               431.7015               475.1170
 Red. masses --      5.2211                 4.9067                 4.4569
 Frc consts  --      0.4947                 0.5388                 0.5928
 IR Inten    --      1.6132                 1.8154                 3.4630

                     25                     26                     27
                      A                      A                      A
 Frequencies --    546.0044               572.3128               617.2053
 Red. masses --      3.7365                 3.1116                 3.5243
 Frc consts  --      0.6563                 0.6005                 0.7910
 IR Inten    --      5.4053                 2.5187                 5.4111

                     28                     29                     30
                      A                      A                      A
 Frequencies --    662.0497               697.2372               734.4441
 Red. masses --      5.8413                 4.2037                 6.0507
 Frc consts  --      1.5085                 1.2040                 1.9230
 IR Inten    --     35.3377                15.9870               137.2460

                     31                     32                     33
                      A                      A                      A
 Frequencies --    771.5222               813.2424               893.4709
 Red. masses --      4.8504                 6.6229                 3.7674
 Frc consts  --      1.7011                 2.5807                 1.7720
 IR Inten    --     11.1809                28.8744                 8.6444

                     34                     35                     36
                      A                      A                      A
 Frequencies --    903.0589               934.7635               973.5296
 Red. masses --      2.5803                 3.9425                 2.9199
 Frc consts  --      1.2398                 2.0297                 1.6305
 IR Inten    --     10.1718                20.5375                 2.6544

                     37                     38                     39
                      A                      A                      A
 Frequencies --    984.0504              1008.9380              1021.2081
 Red. masses --      4.9015                 2.9791                 3.4165
 Frc consts  --      2.7965                 1.7867                 2.0992
 IR Inten    --     70.8198                34.5234                41.8537

                     40                     41                     42
                      A                      A                      A
 Frequencies --   1046.3247              1048.0651              1050.8663
 Red. masses --      3.0929                 1.9790                 1.6733
 Frc consts  --      1.9950                 1.2808                 1.0887
 IR Inten    --      8.9917                29.2878                 6.5155

                     43                     44                     45
                      A                      A                      A
 Frequencies --   1065.8949              1103.4814              1142.4183
 Red. masses --      2.4551                 2.0889                 2.2199
 Frc consts  --      1.6434                 1.4986                 1.7070
 IR Inten    --      3.8355                 6.9283                43.2913

                     46                     47                     48
                      A                      A                      A
 Frequencies --   1149.7355              1157.9671              1175.0596
 Red. masses --      2.0255                 2.2591                 1.4220
 Frc consts  --      1.5775                 1.7848                 1.1568
 IR Inten    --      5.1666                25.4761                47.8181

                     49                     50                     51
                      A                      A                      A
 Frequencies --   1177.3244              1178.0918              1181.3474
 Red. masses --      1.3133                 1.4158                 1.7399
 Frc consts  --      1.0725                 1.1577                 1.4306
 IR Inten    --      7.8682                46.1053                95.2987

                     52                     53                     54
                      A                      A                      A
 Frequencies --   1191.1933              1225.0538              1231.5356
 Red. masses --      2.5010                 2.3734                 2.9876
 Frc consts  --      2.0908                 2.0986                 2.6697
 IR Inten    --     82.7154               124.6868                85.0005

                     55                     56                     57
                      A                      A                      A
 Frequencies --   1238.8102              1246.5878              1247.8907
 Red. masses --      2.2829                 1.2545                 2.0453
 Frc consts  --      2.0642                 1.1486                 1.8765
 IR Inten    --     57.8545                40.5707                10.9963

                     58                     59                     60
                      A                      A                      A
 Frequencies --   1283.3639              1313.7955              1317.5400
 Red. masses --      1.5155                 1.2531                 1.6308
 Frc consts  --      1.4707                 1.2743                 1.6680
 IR Inten    --      8.2722                36.0829                 4.2691

                     61                     62                     63
                      A                      A                      A
 Frequencies --   1322.8071              1350.3471              1355.0038
 Red. masses --      1.3098                 1.3427                 1.3145
 Frc consts  --      1.3504                 1.4425                 1.4220
 IR Inten    --      7.1344                21.2498                42.5745

                     64                     65                     66
                      A                      A                      A
 Frequencies --   1378.8083              1382.9611              1398.7715
 Red. masses --      1.4222                 1.3271                 1.3377
 Frc consts  --      1.5931                 1.4954                 1.5420
 IR Inten    --     24.3549                 4.9921                 5.4153

                     67                     68                     69
                      A                      A                      A
 Frequencies --   1414.2069              1428.8034              1439.5859
 Red. masses --      1.5421                 1.6097                 1.0834
 Frc consts  --      1.8171                 1.9361                 1.3229
 IR Inten    --     49.0747                 9.8268                46.1874

                     70                     71                     72
                      A                      A                      A
 Frequencies --   1440.2773              1451.7762              1473.6923
 Red. masses --      1.7577                 1.2444                 1.1124
 Frc consts  --      2.1482                 1.5453                 1.4234
 IR Inten    --     10.4242                76.1881                 5.3868

                     73                     74                     75
                      A                      A                      A
 Frequencies --   1476.6099              1477.3088              1486.7786
 Red. masses --      1.1500                 1.1563                 1.0408
 Frc consts  --      1.4774                 1.4868                 1.3556
 IR Inten    --      4.1333                 5.4583                14.2371

                     76                     77                     78
                      A                      A                      A
 Frequencies --   1493.1429              1494.7002              1498.1439
 Red. masses --      1.0713                 1.0855                 1.0697
 Frc consts  --      1.4073                 1.4288                 1.4145
 IR Inten    --     10.6337                16.7056                16.0012

                     79                     80                     81
                      A                      A                      A
 Frequencies --   1500.3247              1501.8159              1515.8750
 Red. masses --      1.0496                 1.0463                 3.3695
 Frc consts  --      1.3920                 1.3904                 4.5619
 IR Inten    --      5.8088                17.1338               269.6798

                     82                     83                     84
                      A                      A                      A
 Frequencies --   1522.7996              1620.3075              2998.4704
 Red. masses --      1.0970                 5.1680                 1.0593
 Frc consts  --      1.4988                 7.9940                 5.6111
 IR Inten    --     14.5237               296.7072                31.6698

                     85                     86                     87
                      A                      A                      A
 Frequencies --   3018.6456              3027.0524              3028.1417
 Red. masses --      1.0362                 1.0350                 1.0352
 Frc consts  --      5.5630                 5.5878                 5.5927
 IR Inten    --     48.1222                40.9749                15.0180

                     88                     89                     90
                      A                      A                      A
 Frequencies --   3047.0297              3048.6602              3053.5451
 Red. masses --      1.0854                 1.1013                 1.0855
 Frc consts  --      5.9373                 6.0309                 5.9636
 IR Inten    --      5.7510                22.5421                 7.7498

                     91                     92                     93
                      A                      A                      A
 Frequencies --   3066.0129              3085.4707              3091.7586
 Red. masses --      1.0429                 1.1058                 1.0863
 Frc consts  --      5.7763                 6.2027                 6.1179
 IR Inten    --     18.3202                28.9960                 3.2870

                     94                     95                     96
                      A                      A                      A
 Frequencies --   3098.9452              3100.9507              3153.8945
 Red. masses --      1.1069                 1.1059                 1.0903
 Frc consts  --      6.2633                 6.2655                 6.3897
 IR Inten    --     22.8191                24.7299                 3.0439

                     97                     98                     99
                      A                      A                      A
 Frequencies --   3168.2453              3169.4669              3172.7861
 Red. masses --      1.0999                 1.0899                 1.1010
 Frc consts  --      6.5049                 6.4507                 6.5300
 IR Inten    --      7.8369                 4.1640                 4.4443

                    100                    101                    102
                      A                      A                      A
 Frequencies --   3174.5879              3182.2037              3204.7422
 Red. masses --      1.1002                 1.0919                 1.1076
 Frc consts  --      6.5330                 6.5143                 6.7025
 IR Inten    --      4.8675                 2.5390                 1.9967

 - Thermochemistry -
 -------------------
 Temperature   298.150 Kelvin.  Pressure   1.00000 Atm.
 Atom     1 has atomic number  6 and mass  12.00000

 Molecular mass:   247.11816 amu.
 Principal axes and moments of inertia in atomic units:
                           1         2         3
     Eigenvalues --  3300.173514377.915665405.21456
           X            0.99991  -0.01315   0.00204
           Y            0.01312   0.99982   0.01404
           Z           -0.00222  -0.01401   0.99990
 This molecule is an asymmetric top.
 Rotational symmetry number  1.
 Warning -- assumption of classical behavior for rotation
           may cause significant error
 Rotational temperatures (Kelvin)      0.02625     0.01978     0.01602
 Rotational constants (GHZ):           0.54686     0.41224     0.33389
 Zero-point vibrational energy     805167.0 (Joules/Mol)
                                  192.43953 (Kcal/Mol)
 Warning -- explicit consideration of  27 degrees of freedom as
           vibrations may cause significant error
 Vibrational temperatures:     63.16    82.77   106.42   110.16   122.44
          (Kelvin)            127.53   143.57   167.06   229.80   249.14
                              260.46   297.35   328.46   339.57   375.19
                              407.50   436.44   458.82   489.51   511.20
                              570.48   576.95   621.12   683.59   785.58
                              823.43   888.02   952.54  1003.17  1056.70
                             1110.05  1170.07  1285.50  1299.30  1344.91
                             1400.69  1415.83  1451.63  1469.29  1505.43
                             1507.93  1511.96  1533.58  1587.66  1643.68
                             1654.21  1666.05  1690.65  1693.91  1695.01
                             1699.69  1713.86  1762.58  1771.90  1782.37
                             1793.56  1795.43  1846.47  1890.26  1895.64
                             1903.22  1942.85  1949.55  1983.80  1989.77
                             2012.52  2034.73  2055.73  2071.24  2072.24
                             2088.78  2120.31  2124.51  2125.52  2139.14
                             2148.30  2150.54  2155.49  2158.63  2160.78
                             2181.00  2190.97  2331.26  4314.12  4343.15
                             4355.25  4356.82  4383.99  4386.34  4393.36
                             4411.30  4439.30  4448.35  4458.69  4461.57
                             4537.75  4558.39  4560.15  4564.93  4567.52
                             4578.48  4610.90

 Zero-point correction=                           0.306672 (Hartree/Particle)
 Thermal correction to Energy=                    0.324563
 Thermal correction to Enthalpy=                  0.325508
 Thermal correction to Gibbs Free Energy=         0.260588
 Sum of electronic and zero-point Energies=           -880.626811
 Sum of electronic and thermal Energies=              -880.608920
 Sum of electronic and thermal Enthalpies=            -880.607975
 Sum of electronic and thermal Free Energies=         -880.672895

                     E (Thermal)             CV                S
                      KCal/Mol        Cal/Mol-Kelvin    Cal/Mol-Kelvin
 Total                  203.667             65.113            136.634
 Electronic               0.000              0.000              0.000
 Translational            0.889              2.981             42.415
 Rotational               0.889              2.981             32.724
 Vibrational            201.889             59.151             61.496
 Vibration     1          0.595              1.980              5.075
 Vibration     2          0.596              1.974              4.540
 Vibration     3          0.599              1.966              4.045
 Vibration     4          0.599              1.965              3.977
 Vibration     5          0.601              1.960              3.770
 Vibration     6          0.601              1.957              3.690
 Vibration     7          0.604              1.949              3.458
 Vibration     8          0.608              1.936              3.164
 Vibration     9          0.622              1.892              2.553
 Vibration    10          0.627              1.875              2.401
 Vibration    11          0.630              1.866              2.318
 Vibration    12          0.641              1.830              2.073
 Vibration    13          0.651              1.798              1.892
 Vibration    14          0.655              1.786              1.833
 Vibration    15          0.669              1.745              1.657
 Vibration    16          0.682              1.705              1.514
 Vibration    17          0.695              1.667              1.398
 Vibration    18          0.705              1.637              1.316
 Vibration    19          0.720              1.595              1.211
 Vibration    20          0.731              1.564              1.143
 Vibration    21          0.763              1.478              0.976
 Vibration    22          0.767              1.468              0.959
 Vibration    23          0.793              1.401              0.853
 Vibration    24          0.832              1.305              0.723
 Vibration    25          0.901              1.148              0.553
 Vibration    26          0.929              1.091              0.500
 Vibration    27          0.977              0.996              0.421

 Optimization completed.
    -- Stationary point found.
 Normal termination of Gaussian 09 at Sun Jan  8 05:26:32 2017.
