 Gaussian 09, Revision D.01,
 Gaussian 09:  EM64L-G09RevD.01 24-Apr-2013

 -------------------------------------------------------------------
 #P PBE1PBE/6-311+G(d,p) opt optcyc=999 freq EmpiricalDispersion=GD3
 -------------------------------------------------------------------

 -------
 disacch
 -------
 Symbolic Z-matrix:
 Charge =  1 Multiplicity = 1

 SCF Done:  E(RPBE1PBE) =  -880.913532885     A.U. after   16 cycles
 SCF Done:  E(RPBE1PBE) =  -880.917733001     A.U. after   20 cycles
 SCF Done:  E(RPBE1PBE) =  -880.917461600     A.U. after   13 cycles
 SCF Done:  E(RPBE1PBE) =  -880.918511349     A.U. after   10 cycles
 SCF Done:  E(RPBE1PBE) =  -880.919290227     A.U. after   15 cycles
 SCF Done:  E(RPBE1PBE) =  -880.919693920     A.U. after   12 cycles
 SCF Done:  E(RPBE1PBE) =  -880.919655135     A.U. after   14 cycles
 SCF Done:  E(RPBE1PBE) =  -880.919827001     A.U. after   18 cycles
 SCF Done:  E(RPBE1PBE) =  -880.919912676     A.U. after   17 cycles
 SCF Done:  E(RPBE1PBE) =  -880.919932939     A.U. after   11 cycles
 SCF Done:  E(RPBE1PBE) =  -880.920073108     A.U. after   13 cycles
 SCF Done:  E(RPBE1PBE) =  -880.920077383     A.U. after   10 cycles
 SCF Done:  E(RPBE1PBE) =  -880.920078005     A.U. after   11 cycles
 SCF Done:  E(RPBE1PBE) =  -880.920078585     A.U. after    9 cycles
 SCF Done:  E(RPBE1PBE) =  -880.920078608     A.U. after    9 cycles
 SCF Done:  E(RPBE1PBE) =  -880.920078715     A.U. after    7 cycles
 SCF Done:  E(RPBE1PBE) =  -880.920079009     A.U. after   11 cycles
 SCF Done:  E(RPBE1PBE) =  -880.920079269     A.U. after    9 cycles
 SCF Done:  E(RPBE1PBE) =  -880.920079367     A.U. after    8 cycles
 Optimization completed.
    -- Stationary point found.
 Normal termination of Gaussian 09 at Tue Jan 10 04:46:54 2017.

 ----------------------------------------------------------------------
 #P Geom=AllCheck Guess=TCheck SCRF=Check GenChk RPBE1PBE/6-311+G(d,p)
 Freq
 ----------------------------------------------------------------------

 Structure from the checkpoint file:  "Ac-4_cGalMe.chk"
 -------
 disacch
 -------
 Charge =  1 Multiplicity = 1

                         Standard orientation:
 ---------------------------------------------------------------------
 Center     Atomic      Atomic             Coordinates (Angstroms)
 Number     Number       Type             X           Y           Z
 ---------------------------------------------------------------------
      1          6           0        0.035821    1.404208   -1.480220
      2          6           0       -0.336714   -0.077302   -1.408602
      3          6           0       -0.768681   -0.573741   -0.028723
      4          6           0        0.249653   -0.203871    1.050584
      5          6           0        1.670577   -0.495985    0.543180
      6          6           0        1.824722   -0.142163   -0.940472
      7          8           0        0.902879   -0.715099   -1.744812
      8          8           0        0.190746    1.165708    1.386247
      9          8           0       -2.020061   -0.020965    0.341820
     10          8           0        1.485208    1.343470   -1.186337
     11          1           0       -0.445612    2.012647   -0.717416
     12          1           0       -0.047939    1.821296   -2.482130
     13          1           0       -1.070250   -0.360738   -2.161187
     14          1           0       -0.836320   -1.663531   -0.105074
     15          1           0        0.089090   -0.827509    1.936768
     16          1           0        2.372367    0.089521    1.152893
     17          1           0        2.828949   -0.285702   -1.339192
     18          8           0        1.907305   -1.867525    0.642484
     19          6           0        2.146385    2.440763   -0.490566
     20          1           0        1.975888    3.330573   -1.094437
     21          1           0        1.729730    2.525138    0.511010
     22          1           0        3.207275    2.194746   -0.481617
     23          6           0        3.257460   -2.234110    0.889518
     24          1           0        3.921574   -1.942861    0.066668
     25          1           0        3.617204   -1.789940    1.825240
     26          1           0        3.269482   -3.319349    0.977351
     27          6           0       -0.554533    1.460827    2.564564
     28          1           0       -1.603189    1.179837    2.445439
     29          1           0       -0.125316    0.943810    3.430270
     30          1           0       -0.479485    2.537281    2.719705
     31          6           0       -3.123487   -0.602598   -0.229516
     32          8           0       -3.024844   -1.458051   -1.061411
     33          6           0       -4.379913   -0.031798    0.334703
     34          1           0       -4.328927    1.057998    0.371068
     35          1           0       -4.505376   -0.391860    1.360032
     36          1           0       -5.226731   -0.357033   -0.266021
 ---------------------------------------------------------------------

 SCF Done:  E(RPBE1PBE) =  -880.920079367     A.U. after    1 cycles

 The electronic state is 1-A.
 Alpha  occ. eigenvalues --  -19.48957 -19.40391 -19.38175 -19.35869 -19.35834
 Alpha  occ. eigenvalues --  -19.31510 -10.51775 -10.47558 -10.46016 -10.45164
 Alpha  occ. eigenvalues --  -10.44863 -10.44137 -10.42999 -10.42914 -10.39021
 Alpha  occ. eigenvalues --  -10.38738 -10.33778  -1.35232  -1.27438  -1.26447
 Alpha  occ. eigenvalues --   -1.22739  -1.21576  -1.18047  -1.00146  -0.98129
 Alpha  occ. eigenvalues --   -0.94824  -0.90569  -0.87051  -0.86099  -0.84342
 Alpha  occ. eigenvalues --   -0.82566  -0.80101  -0.76314  -0.74786  -0.73602
 Alpha  occ. eigenvalues --   -0.70934  -0.68027  -0.67755  -0.66925  -0.65584
 Alpha  occ. eigenvalues --   -0.64754  -0.63397  -0.62610  -0.62392  -0.61636
 Alpha  occ. eigenvalues --   -0.60673  -0.59736  -0.59493  -0.59056  -0.58186
 Alpha  occ. eigenvalues --   -0.56535  -0.56301  -0.55398  -0.53272  -0.52803
 Alpha  occ. eigenvalues --   -0.52115  -0.51858  -0.51037  -0.50342  -0.48183
 Alpha  occ. eigenvalues --   -0.47996  -0.47345  -0.44760  -0.42597  -0.41687
 Alpha  occ. eigenvalues --   -0.41125
 Alpha virt. eigenvalues --   -0.13717  -0.12067  -0.11289  -0.10742  -0.09994
 Alpha virt. eigenvalues --   -0.09432  -0.09148  -0.07754  -0.07336  -0.06882
 Alpha virt. eigenvalues --   -0.06514  -0.05791  -0.05506  -0.05301  -0.04150

 Mulliken charges:
               1
     1  C   -0.255483
     2  C   -0.199157
     3  C   -0.578204
     4  C   -0.502170
     5  C   -0.253408
     6  C   -0.548739
     7  O    0.091595
     8  O   -0.026751
     9  O    0.165074
    10  O    0.130607
    11  H    0.274843
    12  H    0.257311
    13  H    0.278298
    14  H    0.278709
    15  H    0.254359
    16  H    0.230167
    17  H    0.273366
    18  O    0.045841
    19  C   -0.322108
    20  H    0.221645
    21  H    0.275586
    22  H    0.219692
    23  C   -0.282515
    24  H    0.155015
    25  H    0.171633
    26  H    0.203076
    27  C   -0.263619
    28  H    0.202833
    29  H    0.184702
    30  H    0.184242
    31  C    0.439336
    32  O   -0.216253
    33  C   -0.724405
    34  H    0.196486
    35  H    0.215102
    36  H    0.223293
 Sum of Mulliken charges =   1.00000

 Dipole moment (field-independent basis, Debye):
    X=              4.3740    Y=              5.6737    Z=              0.9300  Tot=              7.2241
 Quadrupole moment (field-independent basis, Debye-Ang):
   XX=            -61.4743   YY=            -85.1357   ZZ=            -87.7692
   XY=             -2.1744   XZ=             -4.9267   YZ=             -8.4789

  Exact polarizability: 156.795  -2.848 134.212   1.027   3.207 126.500
 Approx polarizability: 188.621  -0.696 190.314   2.257  10.876 176.851

                      1                      2                      3
                      A                      A                      A
 Frequencies --     41.5220                51.5276                59.8717
 Red. masses --      2.3946                 3.8063                 2.0826
 Frc consts  --      0.0024                 0.0060                 0.0044
 IR Inten    --      2.7635                 0.8021                 2.8462

                      4                      5                      6
                      A                      A                      A
 Frequencies --     82.0573                90.4594               101.2125
 Red. masses --      1.5106                 3.4788                 3.6713
 Frc consts  --      0.0060                 0.0168                 0.0222
 IR Inten    --      0.4789                 0.8959                 0.5117

                      7                      8                      9
                      A                      A                      A
 Frequencies --    114.1700               142.3094               154.8235
 Red. masses --      2.1489                 2.3672                 1.7247
 Frc consts  --      0.0165                 0.0282                 0.0244
 IR Inten    --      1.6365                 3.2936                 0.6556

                     10                     11                     12
                      A                      A                      A
 Frequencies --    159.9423               170.8359               178.9648
 Red. masses --      1.4394                 1.2313                 2.3389
 Frc consts  --      0.0217                 0.0212                 0.0441
 IR Inten    --      0.1724                 2.1895                 7.2001

                     13                     14                     15
                      A                      A                      A
 Frequencies --    199.9497               246.9166               255.7153
 Red. masses --      3.2949                 4.7532                 3.4383
 Frc consts  --      0.0776                 0.1707                 0.1325
 IR Inten    --      9.5758                 3.5696                 7.3232

                     16                     17                     18
                      A                      A                      A
 Frequencies --    273.5028               293.1921               299.0601
 Red. masses --      5.2864                 3.4291                 3.1358
 Frc consts  --      0.2330                 0.1737                 0.1652
 IR Inten    --      0.8761                 5.0061                11.8428

                     19                     20                     21
                      A                      A                      A
 Frequencies --    335.1823               365.8372               373.0671
 Red. masses --      3.7296                 4.6935                 4.8193
 Frc consts  --      0.2469                 0.3701                 0.3952
 IR Inten    --      1.5038                11.6289                 1.4353

                     22                     23                     24
                      A                      A                      A
 Frequencies --    435.6016               460.4070               507.7475
 Red. masses --      3.5313                 4.7758                 4.5859
 Frc consts  --      0.3948                 0.5965                 0.6966
 IR Inten    --      4.1956                11.8451                13.5118

                     25                     26                     27
                      A                      A                      A
 Frequencies --    532.4909               568.1067               606.7814
 Red. masses --      5.1740                 4.2976                 2.6905
 Frc consts  --      0.8644                 0.8172                 0.5837
 IR Inten    --      8.4008                18.9613                 9.9607

                     28                     29                     30
                      A                      A                      A
 Frequencies --    646.7478               670.3146               728.4544
 Red. masses --      6.2958                 5.5209                 4.1984
 Frc consts  --      1.5516                 1.4616                 1.3126
 IR Inten    --     43.5536                 9.9230                 5.1939

                     31                     32                     33
                      A                      A                      A
 Frequencies --    738.4811               820.2913               861.8570
 Red. masses --      5.2515                 3.6638                 3.4403
 Frc consts  --      1.6874                 1.4525                 1.5056
 IR Inten    --    115.8938                 3.6743                15.5885

                     34                     35                     36
                      A                      A                      A
 Frequencies --    888.0730               915.6974               943.5338
 Red. masses --      3.9837                 3.7720                 3.4018
 Frc consts  --      1.8511                 1.8635                 1.7843
 IR Inten    --     13.7320                54.6801                49.7511

                     37                     38                     39
                      A                      A                      A
 Frequencies --    947.8151               997.6583              1011.3815
 Red. masses --      2.8577                 2.9004                 2.2919
 Frc consts  --      1.5126                 1.7009                 1.3812
 IR Inten    --     22.8619                25.9913                 9.2613

                     40                     41                     42
                      A                      A                      A
 Frequencies --   1029.6022              1036.1347              1060.7857
 Red. masses --      2.1335                 4.0536                 2.0713
 Frc consts  --      1.3325                 2.5641                 1.3732
 IR Inten    --     21.6535                33.8395                25.8106

                     43                     44                     45
                      A                      A                      A
 Frequencies --   1067.0726              1074.2740              1097.6654
 Red. masses --      3.8061                 2.2723                 2.1932
 Frc consts  --      2.5534                 1.5450                 1.5570
 IR Inten    --     26.9899                 7.3855               139.1107

                     46                     47                     48
                      A                      A                      A
 Frequencies --   1125.7201              1139.9319              1155.7767
 Red. masses --      4.2100                 2.8789                 2.2876
 Frc consts  --      3.1434                 2.2041                 1.8004
 IR Inten    --     79.3914               131.6596                30.9176

                     49                     50                     51
                      A                      A                      A
 Frequencies --   1166.6240              1173.5672              1177.1180
 Red. masses --      1.3061                 1.3163                 1.2631
 Frc consts  --      1.0473                 1.0681                 1.0312
 IR Inten    --     25.7515                 9.4285                 0.6021

                     52                     53                     54
                      A                      A                      A
 Frequencies --   1188.6222              1201.9982              1217.1659
 Red. masses --      1.8373                 1.5851                 1.9577
 Frc consts  --      1.5294                 1.3493                 1.7088
 IR Inten    --     80.1694                32.5606                91.5261

                     55                     56                     57
                      A                      A                      A
 Frequencies --   1227.9972              1230.2471              1239.7055
 Red. masses --      1.4497                 2.0014                 2.4229
 Frc consts  --      1.2880                 1.7847                 2.1939
 IR Inten    --     10.0080               250.3634               253.7176

                     58                     59                     60
                      A                      A                      A
 Frequencies --   1250.4197              1270.9306              1288.1896
 Red. masses --      1.9734                 1.3705                 1.6672
 Frc consts  --      1.8179                 1.3042                 1.6300
 IR Inten    --     12.3561                 5.0702                25.0177

                     61                     62                     63
                      A                      A                      A
 Frequencies --   1322.4650              1334.5884              1349.7179
 Red. masses --      1.2012                 1.5042                 1.4907
 Frc consts  --      1.2377                 1.5786                 1.6001
 IR Inten    --      8.4484                 1.8659                13.6726

                     64                     65                     66
                      A                      A                      A
 Frequencies --   1368.4928              1371.2885              1394.7733
 Red. masses --      1.4103                 1.4155                 1.3562
 Frc consts  --      1.5561                 1.5683                 1.5545
 IR Inten    --      3.7114                 5.3773                26.5335

                     67                     68                     69
                      A                      A                      A
 Frequencies --   1398.7605              1404.0198              1416.8011
 Red. masses --      1.3706                 1.5486                 1.6566
 Frc consts  --      1.5800                 1.7986                 1.9592
 IR Inten    --     76.1104                 9.2870                 3.8006

                     70                     71                     72
                      A                      A                      A
 Frequencies --   1434.2469              1452.7384              1460.2285
 Red. masses --      1.6589                 1.1301                 1.0465
 Frc consts  --      2.0105                 1.4052                 1.3147
 IR Inten    --      6.2832                 3.8354                13.8766

                     73                     74                     75
                      A                      A                      A
 Frequencies --   1468.7847              1469.0691              1472.6580
 Red. masses --      1.0519                 1.0632                 1.1164
 Frc consts  --      1.3370                 1.3519                 1.4264
 IR Inten    --     18.6584                13.5329                 4.5506

                     76                     77                     78
                      A                      A                      A
 Frequencies --   1475.4833              1483.7941              1490.1158
 Red. masses --      1.1431                 1.0454                 1.1031
 Frc consts  --      1.4662                 1.3561                 1.4432
 IR Inten    --      6.5182                 7.8574                 9.4505

                     79                     80                     81
                      A                      A                      A
 Frequencies --   1493.5534              1497.4024              1503.8143
 Red. masses --      1.0424                 1.0748                 1.0519
 Frc consts  --      1.3700                 1.4199                 1.4016
 IR Inten    --     13.9421                18.2684                14.1694

                     82                     83                     84
                      A                      A                      A
 Frequencies --   1508.1567              1862.3420              3022.5319
 Red. masses --      1.0464                11.7040                 1.0361
 Frc consts  --      1.4024                23.9169                 5.5767
 IR Inten    --      7.6376               241.6010                34.4174

                     85                     86                     87
                      A                      A                      A
 Frequencies --   3040.2942              3041.1650              3074.0910
 Red. masses --      1.0756                 1.0438                 1.0383
 Frc consts  --      5.8579                 5.6879                 5.7813
 IR Inten    --     25.7477                25.7771                 1.4742

                     88                     89                     90
                      A                      A                      A
 Frequencies --   3076.6897              3090.1591              3092.6230
 Red. masses --      1.0866                 1.0270                 1.1065
 Frc consts  --      6.0604                 5.7783                 6.2354
 IR Inten    --      5.9477                 9.6544                27.5357

                     91                     92                     93
                      A                      A                      A
 Frequencies --   3100.5893              3128.4057              3129.5948
 Red. masses --      1.0852                 1.0618                 1.0956
 Frc consts  --      6.1470                 6.1227                 6.3221
 IR Inten    --      4.3431                 8.7655                10.5560

                     94                     95                     96
                      A                      A                      A
 Frequencies --   3149.0097              3161.5738              3166.8633
 Red. masses --      1.0985                 1.0911                 1.1059
 Frc consts  --      6.4181                 6.4259                 6.5345
 IR Inten    --      0.9133                 3.2445                 8.1448

                     97                     98                     99
                      A                      A                      A
 Frequencies --   3170.0256              3176.1470              3197.9389
 Red. masses --      1.0909                 1.1001                 1.1042
 Frc consts  --      6.4592                 6.5384                 6.6536
 IR Inten    --      2.4905                 3.8191                 0.6530

                    100                    101                    102
                      A                      A                      A
 Frequencies --   3202.1850              3212.6792              3214.8633
 Red. masses --      1.1098                 1.1146                 1.1127
 Frc consts  --      6.7046                 6.7779                 6.7758
 IR Inten    --      0.0579                 1.9043                 5.3758

 - Thermochemistry -
 -------------------
 Temperature   298.150 Kelvin.  Pressure   1.00000 Atm.
 Atom     1 has atomic number  6 and mass  12.00000

 Molecular mass:   247.11816 amu.
 Principal axes and moments of inertia in atomic units:
                           1         2         3
     Eigenvalues --  2691.363305099.360065286.62030
           X            0.99986  -0.01620  -0.00280
           Y            0.01602   0.99833  -0.05557
           Z            0.00369   0.05552   0.99845
 This molecule is an asymmetric top.
 Rotational symmetry number  1.
 Warning -- assumption of classical behavior for rotation
           may cause significant error
 Rotational temperatures (Kelvin)      0.03218     0.01699     0.01638
 Rotational constants (GHZ):           0.67057     0.35392     0.34138
 Zero-point vibrational energy     804918.3 (Joules/Mol)
                                  192.38009 (Kcal/Mol)
 Warning -- explicit consideration of  27 degrees of freedom as
           vibrations may cause significant error
 Vibrational temperatures:     59.74    74.14    86.14   118.06   130.15
          (Kelvin)            145.62   164.27   204.75   222.76   230.12
                              245.79   257.49   287.68   355.26   367.92
                              393.51   421.84   430.28   482.25   526.36
                              536.76   626.73   662.42   730.53   766.13
                              817.38   873.02   930.52   964.43  1048.08
                             1062.51  1180.21  1240.02  1277.74  1317.48
                             1357.53  1363.69  1435.41  1455.15  1481.37
                             1490.76  1526.23  1535.28  1545.64  1579.29
                             1619.66  1640.11  1662.90  1678.51  1688.50
                             1693.61  1710.16  1729.41  1751.23  1766.81
                             1770.05  1783.66  1799.07  1828.58  1853.42
                             1902.73  1920.17  1941.94  1968.95  1972.98
                             2006.77  2012.50  2020.07  2038.46  2063.56
                             2090.16  2100.94  2113.25  2113.66  2118.82
                             2122.89  2134.85  2143.94  2148.89  2154.43
                             2163.65  2169.90  2679.49  4348.74  4374.30
                             4375.55  4422.93  4426.66  4446.04  4449.59
                             4461.05  4501.07  4502.78  4530.72  4548.79
                             4556.40  4560.95  4569.76  4601.12  4607.22
                             4622.32  4625.47

 Zero-point correction=                           0.306577 (Hartree/Particle)
 Thermal correction to Energy=                    0.324611
 Thermal correction to Enthalpy=                  0.325555
 Thermal correction to Gibbs Free Energy=         0.260362
 Sum of electronic and zero-point Energies=           -880.613502
 Sum of electronic and thermal Energies=              -880.595469
 Sum of electronic and thermal Enthalpies=            -880.594524
 Sum of electronic and thermal Free Energies=         -880.659718

                     E (Thermal)             CV                S
                      KCal/Mol        Cal/Mol-Kelvin    Cal/Mol-Kelvin
 Total                  203.696             65.756            137.210
 Electronic               0.000              0.000              0.000
 Translational            0.889              2.981             42.415
 Rotational               0.889              2.981             32.651
 Vibrational            201.919             59.795             62.145
 Vibration     1          0.594              1.981              5.185
 Vibration     2          0.596              1.977              4.758
 Vibration     3          0.597              1.973              4.461
 Vibration     4          0.600              1.961              3.841
 Vibration     5          0.602              1.956              3.650
 Vibration     6          0.604              1.948              3.431
 Vibration     7          0.607              1.938              3.197
 Vibration     8          0.616              1.911              2.773
 Vibration     9          0.620              1.897              2.612
 Vibration    10          0.622              1.891              2.550
 Vibration    11          0.626              1.878              2.426
 Vibration    12          0.629              1.868              2.339
 Vibration    13          0.638              1.840              2.134
 Vibration    14          0.661              1.768              1.752
 Vibration    15          0.666              1.753              1.691
 Vibration    16          0.676              1.722              1.574
 Vibration    17          0.688              1.686              1.455
 Vibration    18          0.692              1.675              1.422
 Vibration    19          0.716              1.605              1.235
 Vibration    20          0.739              1.543              1.097
 Vibration    21          0.744              1.527              1.067
 Vibration    22          0.796              1.393              0.841
 Vibration    23          0.818              1.338              0.765
 Vibration    24          0.863              1.233              0.639
 Vibration    25          0.887              1.178              0.582
 Vibration    26          0.924              1.100              0.508
 Vibration    27          0.965              1.017              0.438

 Normal termination of Gaussian 09 at Tue Jan 10 05:11:14 2017.
