 Gaussian 09, Revision D.01,
 Gaussian 09:  EM64L-G09RevD.01 24-Apr-2013

 -------------------------------------------------------------------
 #P PBE1PBE/6-311+G(d,p) opt optcyc=999 freq EmpiricalDispersion=GD3
 -------------------------------------------------------------------

 -------
 disacch
 -------
 Symbolic Z-matrix:
 Charge =  1 Multiplicity = 1

 SCF Done:  E(RPBE1PBE) =  -880.915497069     A.U. after   14 cycles
 SCF Done:  E(RPBE1PBE) =  -880.919612834     A.U. after   15 cycles
 SCF Done:  E(RPBE1PBE) =  -880.919049920     A.U. after   12 cycles
 SCF Done:  E(RPBE1PBE) =  -880.920267167     A.U. after   12 cycles
 SCF Done:  E(RPBE1PBE) =  -880.920841118     A.U. after   12 cycles
 SCF Done:  E(RPBE1PBE) =  -880.921164683     A.U. after   12 cycles
 SCF Done:  E(RPBE1PBE) =  -880.921129690     A.U. after   11 cycles
 SCF Done:  E(RPBE1PBE) =  -880.921261876     A.U. after   11 cycles
 SCF Done:  E(RPBE1PBE) =  -880.921298405     A.U. after   12 cycles
 SCF Done:  E(RPBE1PBE) =  -880.921291805     A.U. after   10 cycles
 SCF Done:  E(RPBE1PBE) =  -880.921294011     A.U. after   12 cycles
 SCF Done:  E(RPBE1PBE) =  -880.921293464     A.U. after    9 cycles
 SCF Done:  E(RPBE1PBE) =  -880.921291921     A.U. after   12 cycles
 SCF Done:  E(RPBE1PBE) =  -880.921292475     A.U. after   10 cycles
 SCF Done:  E(RPBE1PBE) =  -880.921292855     A.U. after    8 cycles
 SCF Done:  E(RPBE1PBE) =  -880.921293488     A.U. after    8 cycles
 SCF Done:  E(RPBE1PBE) =  -880.921294478     A.U. after    8 cycles
 SCF Done:  E(RPBE1PBE) =  -880.921294989     A.U. after    8 cycles
 SCF Done:  E(RPBE1PBE) =  -880.921295172     A.U. after    9 cycles
 Optimization completed.
    -- Stationary point found.
 Normal termination of Gaussian 09 at Mon Jan  9 17:36:06 2017.

 ----------------------------------------------------------------------
 #P Geom=AllCheck Guess=TCheck SCRF=Check GenChk RPBE1PBE/6-311+G(d,p)
 Freq
 ----------------------------------------------------------------------

 Structure from the checkpoint file:  "Ac-4_cGalMe.chk"
 -------
 disacch
 -------
 Charge =  1 Multiplicity = 1

                         Standard orientation:
 ---------------------------------------------------------------------
 Center     Atomic      Atomic             Coordinates (Angstroms)
 Number     Number       Type             X           Y           Z
 ---------------------------------------------------------------------
      1          6           0       -0.720221   -2.146681   -0.447206
      2          6           0       -0.218926   -1.073499   -1.416133
      3          6           0        0.671534   -0.009449   -0.788501
      4          6           0        0.020416    0.623615    0.449039
      5          6           0       -1.461949    0.923358    0.152407
      6          6           0       -2.105401   -0.171567   -0.696925
      7          8           0       -1.438317   -0.453910   -1.839344
      8          8           0        0.075654   -0.242823    1.563621
      9          8           0        1.899011   -0.654482   -0.495194
     10          8           0       -1.987832   -1.534038    0.006976
     11          1           0       -0.075344   -2.287863    0.417382
     12          1           0       -0.995295   -3.077935   -0.938872
     13          1           0        0.258865   -1.508807   -2.292439
     14          1           0        0.820177    0.778259   -1.533759
     15          1           0        0.529308    1.566485    0.669176
     16          1           0       -1.991497    1.006023    1.113536
     17          1           0       -3.165676   -0.011799   -0.889864
     18          8           0       -1.637406    2.056898   -0.639865
     19          6           0       -2.494377   -1.788129    1.350427
     20          1           0       -3.475105   -1.316970    1.396143
     21          1           0       -2.595091   -2.868739    1.437148
     22          1           0       -1.796604   -1.371511    2.073887
     23          6           0       -1.646676    3.284704    0.075211
     24          1           0       -2.463523    3.304496    0.806580
     25          1           0       -0.692668    3.463760    0.584183
     26          1           0       -1.804033    4.068361   -0.664044
     27          6           0        1.025455    0.118079    2.558997
     28          1           0        2.048317    0.068654    2.175706
     29          1           0        0.829987    1.127753    2.937147
     30          1           0        0.914816   -0.597330    3.374029
     31          6           0        2.983589    0.168421   -0.361861
     32          8           0        2.874906    1.361140   -0.398772
     33          6           0        4.236023   -0.618985   -0.177465
     34          1           0        4.477246   -1.134086   -1.111538
     35          1           0        4.100918   -1.382601    0.591406
     36          1           0        5.050268    0.052375    0.086875
 ---------------------------------------------------------------------

 SCF Done:  E(RPBE1PBE) =  -880.921295172     A.U. after    2 cycles

 The electronic state is 1-A.
 Alpha  occ. eigenvalues --  -19.49078 -19.40494 -19.38228 -19.35992 -19.35632
 Alpha  occ. eigenvalues --  -19.31580 -10.51803 -10.47631 -10.46116 -10.45359
 Alpha  occ. eigenvalues --  -10.45221 -10.43953 -10.43050 -10.42654 -10.39238
 Alpha  occ. eigenvalues --  -10.38519 -10.33850  -1.35436  -1.27575  -1.26575
 Alpha  occ. eigenvalues --   -1.22619  -1.21547  -1.18141  -1.00452  -0.98006
 Alpha  occ. eigenvalues --   -0.94980  -0.90470  -0.87639  -0.86488  -0.83328
 Alpha  occ. eigenvalues --   -0.82189  -0.81109  -0.76354  -0.74918  -0.73074
 Alpha  occ. eigenvalues --   -0.70974  -0.68175  -0.67501  -0.66820  -0.65672
 Alpha  occ. eigenvalues --   -0.65053  -0.63331  -0.62827  -0.62366  -0.62137
 Alpha  occ. eigenvalues --   -0.60727  -0.59917  -0.59598  -0.59048  -0.58142
 Alpha  occ. eigenvalues --   -0.56586  -0.55707  -0.55528  -0.53858  -0.53198
 Alpha  occ. eigenvalues --   -0.52493  -0.51243  -0.50844  -0.50403  -0.48392
 Alpha  occ. eigenvalues --   -0.47695  -0.47248  -0.44952  -0.43223  -0.41521
 Alpha  occ. eigenvalues --   -0.40797
 Alpha virt. eigenvalues --   -0.13614  -0.11883  -0.11485  -0.10361  -0.09919
 Alpha virt. eigenvalues --   -0.09364  -0.09208  -0.07775  -0.07112  -0.06715
 Alpha virt. eigenvalues --   -0.06539  -0.06224  -0.05512  -0.04623  -0.04161

 Mulliken charges:
               1
     1  C   -0.115459
     2  C   -0.576246
     3  C   -0.595696
     4  C   -0.395139
     5  C   -0.381005
     6  C   -0.391191
     7  O    0.101244
     8  O   -0.001172
     9  O    0.173124
    10  O    0.131634
    11  H    0.276818
    12  H    0.254347
    13  H    0.271502
    14  H    0.279524
    15  H    0.260817
    16  H    0.217594
    17  H    0.282607
    18  O    0.024817
    19  C   -0.325629
    20  H    0.223066
    21  H    0.221071
    22  H    0.274426
    23  C   -0.270794
    24  H    0.173901
    25  H    0.175503
    26  H    0.203522
    27  C   -0.191317
    28  H    0.197791
    29  H    0.189108
    30  H    0.186447
    31  C    0.201145
    32  O   -0.160779
    33  C   -0.550095
    34  H    0.217328
    35  H    0.195483
    36  H    0.221703
 Sum of Mulliken charges =   1.00000

 Dipole moment (field-independent basis, Debye):
    X=             -3.9069    Y=             -4.4816    Z=              3.1619  Tot=              6.7339
 Quadrupole moment (field-independent basis, Debye-Ang):
   XX=            -67.5814   YY=            -78.5158   ZZ=            -88.8936
   XY=             -1.8911   XZ=             -5.8093   YZ=              2.7142

  Exact polarizability: 150.056  -2.515 140.974  -1.191  -1.378 123.512
 Approx polarizability: 184.188  -2.265 196.061  -1.020  -4.671 175.712

                      1                      2                      3
                      A                      A                      A
 Frequencies --     30.7325                49.6114                58.9409
 Red. masses --      2.5859                 1.3385                 2.4233
 Frc consts  --      0.0014                 0.0019                 0.0050
 IR Inten    --      0.2651                 2.0608                 0.3766

                      4                      5                      6
                      A                      A                      A
 Frequencies --     68.9905                79.4030                89.6493
 Red. masses --      3.1794                 2.3574                 3.6340
 Frc consts  --      0.0089                 0.0088                 0.0172
 IR Inten    --      2.0709                 2.0361                 1.1590

                      7                      8                      9
                      A                      A                      A
 Frequencies --     97.6367               137.8764               150.3724
 Red. masses --      2.2616                 1.5753                 2.1996
 Frc consts  --      0.0127                 0.0176                 0.0293
 IR Inten    --      2.9044                 0.2508                 1.8064

                     10                     11                     12
                      A                      A                      A
 Frequencies --    168.5155               175.8831               179.2612
 Red. masses --      1.6685                 1.3578                 2.9544
 Frc consts  --      0.0279                 0.0247                 0.0559
 IR Inten    --      2.9268                 3.2915                 6.0504

                     13                     14                     15
                      A                      A                      A
 Frequencies --    198.6613               234.1810               253.5280
 Red. masses --      3.3171                 3.2186                 4.2449
 Frc consts  --      0.0771                 0.1040                 0.1608
 IR Inten    --      4.8759                 2.2799                 4.3097

                     16                     17                     18
                      A                      A                      A
 Frequencies --    276.5572               292.9900               309.8467
 Red. masses --      5.4094                 3.4398                 3.4846
 Frc consts  --      0.2438                 0.1740                 0.1971
 IR Inten    --      8.5283                 7.7371                 3.6054

                     19                     20                     21
                      A                      A                      A
 Frequencies --    341.4396               372.4614               386.6908
 Red. masses --      3.4021                 4.9996                 4.8112
 Frc consts  --      0.2337                 0.4086                 0.4239
 IR Inten    --     11.6727                 4.0507                 2.2826

                     22                     23                     24
                      A                      A                      A
 Frequencies --    426.6823               493.6553               510.1556
 Red. masses --      3.5822                 4.8118                 4.8423
 Frc consts  --      0.3842                 0.6909                 0.7425
 IR Inten    --      3.2213                 3.2228                40.7147

                     25                     26                     27
                      A                      A                      A
 Frequencies --    513.9530               559.7832               604.4857
 Red. masses --      4.2193                 4.8370                 2.7124
 Frc consts  --      0.6567                 0.8930                 0.5840
 IR Inten    --      2.3904                 4.8328                 7.6589

                     28                     29                     30
                      A                      A                      A
 Frequencies --    648.9948               672.5342               742.3065
 Red. masses --      5.9289                 5.3447                 4.6862
 Frc consts  --      1.4713                 1.4243                 1.5214
 IR Inten    --     29.2102                15.7851                 7.9038

                     31                     32                     33
                      A                      A                      A
 Frequencies --    747.0060               813.9630               863.1701
 Red. masses --      5.0449                 3.7705                 3.4783
 Frc consts  --      1.6586                 1.4719                 1.5269
 IR Inten    --    132.1052                 2.5027                22.8512

                     34                     35                     36
                      A                      A                      A
 Frequencies --    897.6554               913.4193               940.4837
 Red. masses --      3.4159                 3.8384                 3.2732
 Frc consts  --      1.6217                 1.8869                 1.7058
 IR Inten    --     16.1887                42.1642                37.0636

                     37                     38                     39
                      A                      A                      A
 Frequencies --    960.8759               998.3476              1007.5566
 Red. masses --      2.8035                 3.6369                 1.8606
 Frc consts  --      1.5251                 2.1357                 1.1129
 IR Inten    --      6.0496                 6.6996                 5.9691

                     40                     41                     42
                      A                      A                      A
 Frequencies --   1036.6627              1040.4706              1060.3678
 Red. masses --      2.4263                 4.2696                 1.9757
 Frc consts  --      1.5363                 2.7233                 1.3088
 IR Inten    --     46.8486                18.4154                22.2644

                     43                     44                     45
                      A                      A                      A
 Frequencies --   1065.2258              1073.0575              1100.6885
 Red. masses --      4.1240                 2.1503                 2.1203
 Frc consts  --      2.7571                 1.4588                 1.5135
 IR Inten    --     44.7826                 7.0239                89.7896

                     46                     47                     48
                      A                      A                      A
 Frequencies --   1127.3316              1145.6073              1165.6336
 Red. masses --      5.0873                 2.9295                 1.3244
 Frc consts  --      3.8092                 2.2653                 1.0602
 IR Inten    --     84.9222               126.7880                10.8216

                     49                     50                     51
                      A                      A                      A
 Frequencies --   1167.0884              1170.9022              1174.9433
 Red. masses --      2.2114                 1.3083                 1.3478
 Frc consts  --      1.7747                 1.0568                 1.0962
 IR Inten    --     91.6706                 7.1084                14.7260

                     52                     53                     54
                      A                      A                      A
 Frequencies --   1182.4227              1199.4470              1216.1380
 Red. masses --      1.7064                 1.6575                 1.7370
 Frc consts  --      1.4057                 1.4050                 1.5136
 IR Inten    --     29.5151                45.3944                43.7716

                     55                     56                     57
                      A                      A                      A
 Frequencies --   1220.5181              1231.3051              1242.5571
 Red. masses --      1.6572                 1.5552                 2.7008
 Frc consts  --      1.4545                 1.3892                 2.4569
 IR Inten    --     10.9171                66.6349               343.1547

                     58                     59                     60
                      A                      A                      A
 Frequencies --   1252.2309              1261.3073              1277.7417
 Red. masses --      1.9120                 1.5022                 1.6367
 Frc consts  --      1.7665                 1.4081                 1.5743
 IR Inten    --     92.0981                 9.7174                22.0354

                     61                     62                     63
                      A                      A                      A
 Frequencies --   1309.0442              1339.8396              1348.0324
 Red. masses --      1.3067                 1.2259                 1.3330
 Frc consts  --      1.3192                 1.2966                 1.4272
 IR Inten    --     19.4507                 8.4643                 3.2233

                     64                     65                     66
                      A                      A                      A
 Frequencies --   1371.6779              1382.7355              1391.6262
 Red. masses --      1.6243                 1.5136                 1.4602
 Frc consts  --      1.8006                 1.7051                 1.6661
 IR Inten    --      1.4680                 3.5913                28.6213

                     67                     68                     69
                      A                      A                      A
 Frequencies --   1400.1485              1403.1826              1416.6428
 Red. masses --      1.3620                 1.4939                 1.7084
 Frc consts  --      1.5732                 1.7330                 2.0200
 IR Inten    --     40.8184                54.5382                 0.2624

                     70                     71                     72
                      A                      A                      A
 Frequencies --   1435.8849              1454.6332              1460.0845
 Red. masses --      1.6366                 1.1380                 1.0467
 Frc consts  --      1.9881                 1.4187                 1.3146
 IR Inten    --      2.9398                 3.6460                14.8146

                     73                     74                     75
                      A                      A                      A
 Frequencies --   1466.8204              1468.4680              1473.5135
 Red. masses --      1.0501                 1.0600                 1.1233
 Frc consts  --      1.3311                 1.3468                 1.4370
 IR Inten    --     13.3325                17.1283                 4.1528

                     76                     77                     78
                      A                      A                      A
 Frequencies --   1478.5491              1486.8049              1491.0879
 Red. masses --      1.1385                 1.0527                 1.0495
 Frc consts  --      1.4665                 1.3710                 1.3748
 IR Inten    --      7.0026                 8.6963                14.7719

                     79                     80                     81
                      A                      A                      A
 Frequencies --   1494.2291              1496.1283              1499.8531
 Red. masses --      1.0660                 1.0656                 1.0763
 Frc consts  --      1.4023                 1.4054                 1.4266
 IR Inten    --      1.3954                 8.5299                16.2811

                     82                     83                     84
                      A                      A                      A
 Frequencies --   1502.5955              1857.9545              3020.1422
 Red. masses --      1.0534                11.6527                 1.0798
 Frc consts  --      1.4013                23.6999                 5.8030
 IR Inten    --     18.8318               216.1773                15.8576

                     85                     86                     87
                      A                      A                      A
 Frequencies --   3026.6921              3040.1163              3074.5216
 Red. masses --      1.0391                 1.0343                 1.0378
 Frc consts  --      5.6084                 5.6322                 5.7799
 IR Inten    --     31.4329                31.8220                 1.3840

                     88                     89                     90
                      A                      A                      A
 Frequencies --   3090.1445              3093.7434              3098.3041
 Red. masses --      1.0271                 1.0897                 1.0991
 Frc consts  --      5.7786                 6.1452                 6.2161
 IR Inten    --      8.8917                 6.6752                25.7584

                     91                     92                     93
                      A                      A                      A
 Frequencies --   3101.4116              3120.0383              3130.8359
 Red. masses --      1.0890                 1.1038                 1.0576
 Frc consts  --      6.1713                 6.3309                 6.1078
 IR Inten    --      1.1874                21.0960                 3.9373

                     94                     95                     96
                      A                      A                      A
 Frequencies --   3147.6948              3161.6583              3164.1193
 Red. masses --      1.0992                 1.0893                 1.1041
 Frc consts  --      6.4165                 6.4157                 6.5128
 IR Inten    --      0.7157                 0.9229                 9.6479

                     97                     98                     99
                      A                      A                      A
 Frequencies --   3171.3090              3177.3373              3198.0291
 Red. masses --      1.0937                 1.1005                 1.1041
 Frc consts  --      6.4810                 6.5461                 6.6533
 IR Inten    --      1.5223                 4.1827                 0.6808

                    100                    101                    102
                      A                      A                      A
 Frequencies --   3203.3588              3213.8524              3216.5856
 Red. masses --      1.1099                 1.1124                 1.1150
 Frc consts  --      6.7103                 6.7694                 6.7972
 IR Inten    --      0.0299                 6.0784                 1.1571

 - Thermochemistry -
 -------------------
 Temperature   298.150 Kelvin.  Pressure   1.00000 Atm.
 Atom     1 has atomic number  6 and mass  12.00000

 Molecular mass:   247.11816 amu.
 Principal axes and moments of inertia in atomic units:
                           1         2         3
     Eigenvalues --  2782.711324562.373575214.62892
           X            0.99973  -0.02178  -0.00832
           Y            0.02185   0.99973   0.00833
           Z            0.00814  -0.00851   0.99993
 This molecule is an asymmetric top.
 Rotational symmetry number  1.
 Warning -- assumption of classical behavior for rotation
           may cause significant error
 Rotational temperatures (Kelvin)      0.03113     0.01898     0.01661
 Rotational constants (GHZ):           0.64855     0.39557     0.34609
 Zero-point vibrational energy     804843.6 (Joules/Mol)
                                  192.36223 (Kcal/Mol)
 Warning -- explicit consideration of  27 degrees of freedom as
           vibrations may cause significant error
 Vibrational temperatures:     44.22    71.38    84.80    99.26   114.24
          (Kelvin)            128.99   140.48   198.37   216.35   242.46
                              253.06   257.92   285.83   336.93   364.77
                              397.90   421.55   445.80   491.25   535.89
                              556.36   613.90   710.26   734.00   739.46
                              805.40   869.72   933.76   967.63  1068.01
                             1074.77  1171.11  1241.91  1291.52  1314.21
                             1353.14  1382.48  1436.40  1449.65  1491.52
                             1497.00  1525.63  1532.62  1543.89  1583.64
                             1621.98  1648.27  1677.08  1679.18  1684.67
                             1690.48  1701.24  1725.73  1749.75  1756.05
                             1771.57  1787.76  1801.68  1814.74  1838.38
                             1883.42  1927.73  1939.52  1973.54  1989.45
                             2002.24  2014.50  2018.86  2038.23  2065.92
                             2092.89  2100.73  2110.42  2112.80  2120.05
                             2127.30  2139.18  2145.34  2149.86  2152.59
                             2157.95  2161.90  2673.18  4345.31  4354.73
                             4374.04  4423.55  4446.02  4451.20  4457.76
                             4462.23  4489.03  4504.57  4528.83  4548.92
                             4552.46  4562.80  4571.47  4601.24  4608.91
                             4624.01  4627.94

 Zero-point correction=                           0.306549 (Hartree/Particle)
 Thermal correction to Energy=                    0.324670
 Thermal correction to Enthalpy=                  0.325615
 Thermal correction to Gibbs Free Energy=         0.259660
 Sum of electronic and zero-point Energies=           -880.614746
 Sum of electronic and thermal Energies=              -880.596625
 Sum of electronic and thermal Enthalpies=            -880.595680
 Sum of electronic and thermal Free Energies=         -880.661635

                     E (Thermal)             CV                S
                      KCal/Mol        Cal/Mol-Kelvin    Cal/Mol-Kelvin
 Total                  203.734             65.677            138.812
 Electronic               0.000              0.000              0.000
 Translational            0.889              2.981             42.415
 Rotational               0.889              2.981             32.560
 Vibrational            201.956             59.715             63.838
 Vibration     1          0.594              1.984              5.782
 Vibration     2          0.595              1.978              4.833
 Vibration     3          0.596              1.974              4.492
 Vibration     4          0.598              1.969              4.182
 Vibration     5          0.600              1.963              3.906
 Vibration     6          0.602              1.957              3.668
 Vibration     7          0.603              1.951              3.501
 Vibration     8          0.614              1.915              2.833
 Vibration     9          0.618              1.902              2.668
 Vibration    10          0.625              1.881              2.452
 Vibration    11          0.628              1.872              2.372
 Vibration    12          0.629              1.868              2.336
 Vibration    13          0.637              1.842              2.145
 Vibration    14          0.654              1.789              1.847
 Vibration    15          0.665              1.757              1.706
 Vibration    16          0.678              1.717              1.555
 Vibration    17          0.688              1.687              1.457
 Vibration    18          0.699              1.655              1.363
 Vibration    19          0.721              1.593              1.205
 Vibration    20          0.744              1.529              1.070
 Vibration    21          0.755              1.499              1.013
 Vibration    22          0.788              1.412              0.870
 Vibration    23          0.849              1.264              0.674
 Vibration    24          0.865              1.227              0.633
 Vibration    25          0.869              1.219              0.624
 Vibration    26          0.915              1.118              0.524
 Vibration    27          0.963              1.022              0.442

 Optimization completed.
    -- Stationary point found.
 Normal termination of Gaussian 09 at Mon Jan  9 18:03:10 2017.
