 Gaussian 09, Revision D.01,
 Gaussian 09:  EM64L-G09RevD.01 24-Apr-2013

 -------------------------------------------------------------------
 #P PBE1PBE/6-311+G(d,p) opt optcyc=999 freq EmpiricalDispersion=GD3
 -------------------------------------------------------------------

 -------
 disacch
 -------
 Symbolic Z-matrix:
 Charge =  1 Multiplicity = 1

 SCF Done:  E(RPBE1PBE) =  -880.920543342     A.U. after   20 cycles
 SCF Done:  E(RPBE1PBE) =  -880.924904792     A.U. after   18 cycles
 SCF Done:  E(RPBE1PBE) =  -880.925517758     A.U. after   19 cycles
 SCF Done:  E(RPBE1PBE) =  -880.925856627     A.U. after   19 cycles
 SCF Done:  E(RPBE1PBE) =  -880.926010612     A.U. after   17 cycles
 SCF Done:  E(RPBE1PBE) =  -880.926074779     A.U. after   15 cycles
 SCF Done:  E(RPBE1PBE) =  -880.926084605     A.U. after   15 cycles
 SCF Done:  E(RPBE1PBE) =  -880.926087416     A.U. after   16 cycles
 SCF Done:  E(RPBE1PBE) =  -880.926089489     A.U. after   14 cycles
 SCF Done:  E(RPBE1PBE) =  -880.926090983     A.U. after   10 cycles
 SCF Done:  E(RPBE1PBE) =  -880.926092712     A.U. after   16 cycles
 SCF Done:  E(RPBE1PBE) =  -880.926094105     A.U. after   15 cycles
 SCF Done:  E(RPBE1PBE) =  -880.926094832     A.U. after   14 cycles
 SCF Done:  E(RPBE1PBE) =  -880.926094760     A.U. after   14 cycles
 SCF Done:  E(RPBE1PBE) =  -880.926094546     A.U. after   15 cycles
 SCF Done:  E(RPBE1PBE) =  -880.926094338     A.U. after   13 cycles
 SCF Done:  E(RPBE1PBE) =  -880.926094230     A.U. after   13 cycles
 Optimization completed.
    -- Stationary point found.
 Normal termination of Gaussian 09 at Tue Oct 24 15:49:09 2017.

 ----------------------------------------------------------------------
 #P Geom=AllCheck Guess=TCheck SCRF=Check GenChk RPBE1PBE/6-311+G(d,p)
 Freq
 ----------------------------------------------------------------------

 Structure from the checkpoint file:  "Ac-4_cGalMe.chk"
 -------
 disacch
 -------
 Charge =  1 Multiplicity = 1

                         Standard orientation:
 ---------------------------------------------------------------------
 Center     Atomic      Atomic             Coordinates (Angstroms)
 Number     Number       Type             X           Y           Z
 ---------------------------------------------------------------------
      1          6           0        2.106328   -1.546619    0.453749
      2          6           0        1.198230   -0.325181    0.395671
      3          6           0       -0.179313   -0.562581    0.971903
      4          6           0       -1.023958    0.727727    0.973321
      5          6           0       -0.650774    1.597988   -0.233228
      6          6           0       -0.062853    0.698522   -1.319043
      7          8           0        1.065683    0.049333   -0.988573
      8          8           0       -2.393141    0.462683    0.913803
      9          8           0       -0.879076   -1.592002    0.189266
     10          8           0        3.358608   -1.318371   -0.102557
     11          1           0        1.651759   -2.360545   -0.118458
     12          1           0        2.178703   -1.864788    1.507313
     13          1           0        1.641199    0.518521    0.937455
     14          1           0       -0.120740   -1.014256    1.961874
     15          1           0       -0.752303    1.295821    1.873738
     16          1           0       -1.561682    2.080395   -0.611383
     17          1           0        0.063493    1.165379   -2.293149
     18          8           0        0.302873    2.518887    0.197331
     19          6           0        4.237693   -0.566220    0.708522
     20          1           0        5.202363   -0.561216    0.202481
     21          1           0        3.905883    0.473659    0.830794
     22          1           0        4.355356   -1.026414    1.698771
     23          6           0        0.585902    3.568411   -0.720289
     24          1           0        1.155141    3.209579   -1.585195
     25          1           0       -0.339126    4.050559   -1.057644
     26          1           0        1.191414    4.294097   -0.179627
     27          6           0       -2.942337   -0.061374    2.116144
     28          1           0       -2.578243   -1.076332    2.318121
     29          1           0       -2.707378    0.588938    2.966194
     30          1           0       -4.022089   -0.091994    1.977594
     31          6           0       -1.428580   -1.326222   -0.941393
     32          8           0       -1.174669   -0.313001   -1.658983
     33          6           0       -2.417319   -2.299615   -1.438881
     34          1           0       -3.394903   -1.989743   -1.050638
     35          1           0       -2.195454   -3.294212   -1.052622
     36          1           0       -2.453737   -2.286708   -2.526766
 ---------------------------------------------------------------------

 SCF Done:  E(RPBE1PBE) =  -880.926094230     A.U. after    1 cycles

 The electronic state is 1-A.
 Alpha  occ. eigenvalues --  -19.45969 -19.45106 -19.39758 -19.37114 -19.36133
 Alpha  occ. eigenvalues --  -19.32574 -10.57799 -10.50847 -10.46876 -10.44599
 Alpha  occ. eigenvalues --  -10.44036 -10.44030 -10.40297 -10.39942 -10.39280
 Alpha  occ. eigenvalues --  -10.38929 -10.36513  -1.37571  -1.29592  -1.26960
 Alpha  occ. eigenvalues --   -1.23706  -1.22183  -1.19214  -1.02213  -0.98782
 Alpha  occ. eigenvalues --   -0.95968  -0.89523  -0.89180  -0.86448  -0.83621
 Alpha  occ. eigenvalues --   -0.82006  -0.79567  -0.77956  -0.76534  -0.73529
 Alpha  occ. eigenvalues --   -0.72501  -0.68632  -0.67926  -0.67067  -0.66944
 Alpha  occ. eigenvalues --   -0.64810  -0.64144  -0.63469  -0.62210  -0.61408
 Alpha  occ. eigenvalues --   -0.61170  -0.59931  -0.58733  -0.58690  -0.58196
 Alpha  occ. eigenvalues --   -0.57734  -0.56938  -0.56280  -0.55101  -0.54771
 Alpha  occ. eigenvalues --   -0.53395  -0.52197  -0.50470  -0.49928  -0.49056
 Alpha  occ. eigenvalues --   -0.48087  -0.46794  -0.44921  -0.43531  -0.42255
 Alpha  occ. eigenvalues --   -0.39227
 Alpha virt. eigenvalues --   -0.20495  -0.12113  -0.10650  -0.09959  -0.09234
 Alpha virt. eigenvalues --   -0.08385  -0.08076  -0.07497  -0.06760  -0.06442
 Alpha virt. eigenvalues --   -0.06230  -0.06012  -0.05600  -0.05012  -0.04491

 Mulliken charges:
               1
     1  C   -0.502711
     2  C    0.130795
     3  C   -0.503808
     4  C   -0.316410
     5  C   -0.145472
     6  C   -0.384218
     7  O    0.088800
     8  O    0.054328
     9  O    0.233306
    10  O   -0.060209
    11  H    0.203808
    12  H    0.181085
    13  H    0.267760
    14  H    0.264941
    15  H    0.253533
    16  H    0.254237
    17  H    0.284844
    18  O    0.024416
    19  C   -0.319684
    20  H    0.195613
    21  H    0.157728
    22  H    0.159526
    23  C   -0.300619
    24  H    0.178910
    25  H    0.177416
    26  H    0.202552
    27  C   -0.325338
    28  H    0.177997
    29  H    0.188129
    30  H    0.207670
    31  C    0.058268
    32  O    0.274633
    33  C   -1.080967
    34  H    0.248683
    35  H    0.237534
    36  H    0.232921
 Sum of Mulliken charges =   1.00000

 Dipole moment (field-independent basis, Debye):
    X=             -3.7660    Y=             -0.6311    Z=              0.9242  Tot=              3.9288
 Quadrupole moment (field-independent basis, Debye-Ang):
   XX=            -76.3815   YY=            -77.6857   ZZ=            -83.7801
   XY=             11.2781   XZ=              5.6829   YZ=             -2.8485

  Exact polarizability: 154.305  10.567 141.106   2.501  -2.047 127.613
 Approx polarizability: 191.419  10.840 184.847   6.480  -5.088 187.702

                      1                      2                      3
                      A                      A                      A
 Frequencies --     37.6972                52.9213                67.2188
 Red. masses --      2.8258                 3.6220                 3.0504
 Frc consts  --      0.0024                 0.0060                 0.0081
 IR Inten    --      1.6273                 0.1231                 3.5695

                      4                      5                      6
                      A                      A                      A
 Frequencies --     79.4625                88.8393                93.2051
 Red. masses --      3.0916                 1.0412                 2.4377
 Frc consts  --      0.0115                 0.0048                 0.0125
 IR Inten    --      4.4514                 0.4480                 2.1401

                      7                      8                      9
                      A                      A                      A
 Frequencies --    112.4835               124.4102               157.1951
 Red. masses --      2.4761                 1.9659                 3.0206
 Frc consts  --      0.0185                 0.0179                 0.0440
 IR Inten    --      0.1809                 2.9368                 3.5400

                     10                     11                     12
                      A                      A                      A
 Frequencies --    172.4610               186.1605               193.0981
 Red. masses --      3.4389                 1.3041                 1.3613
 Frc consts  --      0.0603                 0.0266                 0.0299
 IR Inten    --      1.0516                 0.7571                 1.5886

                     13                     14                     15
                      A                      A                      A
 Frequencies --    219.5863               255.8574               266.9556
 Red. masses --      1.7957                 3.9532                 4.2679
 Frc consts  --      0.0510                 0.1525                 0.1792
 IR Inten    --      3.0502                13.1951                 1.7365

                     16                     17                     18
                      A                      A                      A
 Frequencies --    292.2422               295.7037               331.0751
 Red. masses --      4.2515                 5.8751                 3.8574
 Frc consts  --      0.2139                 0.3027                 0.2491
 IR Inten    --      5.5779                 2.5725                 2.6438

                     19                     20                     21
                      A                      A                      A
 Frequencies --    344.5914               356.9405               397.3370
 Red. masses --      4.0455                 4.5983                 6.0433
 Frc consts  --      0.2830                 0.3452                 0.5621
 IR Inten    --      3.5907                 1.9393                 4.1482

                     22                     23                     24
                      A                      A                      A
 Frequencies --    424.3802               453.8417               474.1106
 Red. masses --      4.7874                 2.5935                 3.8496
 Frc consts  --      0.5080                 0.3147                 0.5098
 IR Inten    --      1.7899                 3.9488                 6.1128

                     25                     26                     27
                      A                      A                      A
 Frequencies --    518.7288               571.7810               617.0437
 Red. masses --      3.6995                 3.5964                 3.4779
 Frc consts  --      0.5865                 0.6927                 0.7802
 IR Inten    --      9.6193                 6.4872                 5.6060

                     28                     29                     30
                      A                      A                      A
 Frequencies --    658.0501               722.8018               743.8948
 Red. masses --      5.9273                 6.0262                 5.7538
 Frc consts  --      1.5123                 1.8549                 1.8760
 IR Inten    --     41.2699               138.3129                42.1638

                     31                     32                     33
                      A                      A                      A
 Frequencies --    773.8820               814.8248               844.6774
 Red. masses --      4.7899                 5.7391                 3.1510
 Frc consts  --      1.6902                 2.2450                 1.3246
 IR Inten    --      7.3268                20.3912                 9.6373

                     34                     35                     36
                      A                      A                      A
 Frequencies --    896.7383               949.8408               958.4630
 Red. masses --      3.1933                 4.7544                 3.4439
 Frc consts  --      1.5130                 2.5272                 1.8640
 IR Inten    --      6.7260                28.7319                 4.4973

                     37                     38                     39
                      A                      A                      A
 Frequencies --    976.9577               985.9832              1004.8644
 Red. masses --      3.0368                 4.6069                 2.3126
 Frc consts  --      1.7077                 2.6387                 1.3758
 IR Inten    --     42.6644                74.6134                 8.1084

                     40                     41                     42
                      A                      A                      A
 Frequencies --   1037.1465              1047.9819              1048.3958
 Red. masses --      2.2189                 2.4734                 1.8151
 Frc consts  --      1.4063                 1.6005                 1.1755
 IR Inten    --     15.0148                 3.9129                21.0971

                     43                     44                     45
                      A                      A                      A
 Frequencies --   1068.2386              1099.9046              1127.5743
 Red. masses --      2.8752                 2.9154                 1.9232
 Frc consts  --      1.9331                 2.0781                 1.4406
 IR Inten    --     13.4236                14.4047                 8.6814

                     46                     47                     48
                      A                      A                      A
 Frequencies --   1143.8584              1155.3581              1173.9110
 Red. masses --      2.0497                 2.6036                 1.5116
 Frc consts  --      1.5801                 2.0477                 1.2273
 IR Inten    --     21.4437                31.9699                66.7966

                     49                     50                     51
                      A                      A                      A
 Frequencies --   1175.8919              1177.1885              1179.6755
 Red. masses --      1.3864                 1.5066                 1.4513
 Frc consts  --      1.1294                 1.2301                 1.1899
 IR Inten    --     25.8134                48.4838                48.6596

                     52                     53                     54
                      A                      A                      A
 Frequencies --   1182.4786              1225.7775              1232.1703
 Red. masses --      2.0598                 2.4945                 2.3645
 Frc consts  --      1.6969                 2.2083                 2.1151
 IR Inten    --     51.8515               139.0646                83.6383

                     55                     56                     57
                      A                      A                      A
 Frequencies --   1240.6524              1246.7508              1272.5902
 Red. masses --      2.8766                 2.0555                 1.5446
 Frc consts  --      2.6088                 1.8825                 1.4738
 IR Inten    --     35.4707                13.1955                39.8792

                     58                     59                     60
                      A                      A                      A
 Frequencies --   1309.1805              1320.9261              1323.2775
 Red. masses --      1.3600                 1.4614                 1.3672
 Frc consts  --      1.3734                 1.5023                 1.4106
 IR Inten    --     13.5354                10.7609                 3.9625

                     61                     62                     63
                      A                      A                      A
 Frequencies --   1341.6841              1347.9570              1365.6227
 Red. masses --      1.3062                 1.2886                 1.2320
 Frc consts  --      1.3854                 1.3795                 1.3537
 IR Inten    --     62.2558                27.2931                 6.0672

                     64                     65                     66
                      A                      A                      A
 Frequencies --   1366.0143              1385.4150              1390.6991
 Red. masses --      1.3707                 1.2688                 1.6962
 Frc consts  --      1.5069                 1.4349                 1.9328
 IR Inten    --     15.8294                 4.5379                28.6015

                     67                     68                     69
                      A                      A                      A
 Frequencies --   1404.6102              1428.1891              1438.9960
 Red. masses --      1.3512                 1.6251                 1.0781
 Frc consts  --      1.5706                 1.9530                 1.3153
 IR Inten    --     27.5027                 7.1548                53.8043

                     70                     71                     72
                      A                      A                      A
 Frequencies --   1441.0408              1450.8720              1466.4627
 Red. masses --      1.5236                 1.2632                 1.0908
 Frc consts  --      1.8641                 1.5666                 1.3821
 IR Inten    --      4.3610                90.7650                 3.5775

                     73                     74                     75
                      A                      A                      A
 Frequencies --   1474.3329              1476.4675              1479.8425
 Red. masses --      1.1170                 1.1346                 1.1132
 Frc consts  --      1.4306                 1.4573                 1.4363
 IR Inten    --      3.7725                10.1251                10.6013

                     76                     77                     78
                      A                      A                      A
 Frequencies --   1493.0428              1494.5216              1494.8903
 Red. masses --      1.0778                 1.0789                 1.0854
 Frc consts  --      1.4155                 1.4198                 1.4291
 IR Inten    --     10.4169                12.9680                 9.7771

                     79                     80                     81
                      A                      A                      A
 Frequencies --   1499.0434              1500.2969              1502.9128
 Red. masses --      1.0551                 1.0539                 1.0454
 Frc consts  --      1.3969                 1.3977                 1.3912
 IR Inten    --     10.6619                 5.3481                20.6652

                     82                     83                     84
                      A                      A                      A
 Frequencies --   1511.5329              1623.9675              2990.0629
 Red. masses --      3.2071                 5.4178                 1.0680
 Frc consts  --      4.3172                 8.4184                 5.6259
 IR Inten    --    277.5330               286.6948                32.0406

                     85                     86                     87
                      A                      A                      A
 Frequencies --   3006.7988              3025.3534              3028.4438
 Red. masses --      1.0379                 1.0358                 1.0349
 Frc consts  --      5.5288                 5.5857                 5.5922
 IR Inten    --     35.3547                29.1271                25.5446

                     88                     89                     90
                      A                      A                      A
 Frequencies --   3045.3788              3055.1055              3065.8903
 Red. masses --      1.0851                 1.0857                 1.0427
 Frc consts  --      5.9294                 5.9703                 5.7748
 IR Inten    --      3.7143                 8.0311                19.3556

                     91                     92                     93
                      A                      A                      A
 Frequencies --   3068.7516              3079.5788              3098.6876
 Red. masses --      1.1044                 1.0853                 1.1056
 Frc consts  --      6.1276                 6.0646                 6.2545
 IR Inten    --     44.8330                 1.1183                21.6967

                     94                     95                     96
                      A                      A                      A
 Frequencies --   3101.7947              3109.6198              3150.6831
 Red. masses --      1.1071                 1.0936                 1.0887
 Frc consts  --      6.2760                 6.2303                 6.3678
 IR Inten    --     24.1569                15.4854                 1.1444

                     97                     98                     99
                      A                      A                      A
 Frequencies --   3153.3302              3165.2841              3173.2445
 Red. masses --      1.0907                 1.0981                 1.1011
 Frc consts  --      6.3898                 6.4823                 6.5326
 IR Inten    --      3.1170                 8.3465                 4.6655

                    100                    101                    102
                      A                      A                      A
 Frequencies --   3174.7023              3181.0002              3204.6383
 Red. masses --      1.1003                 1.0922                 1.1074
 Frc consts  --      6.5337                 6.5115                 6.7008
 IR Inten    --      4.8231                 2.1563                 2.3226

 - Thermochemistry -
 -------------------
 Temperature   298.150 Kelvin.  Pressure   1.00000 Atm.
 Atom     1 has atomic number  6 and mass  12.00000

 Molecular mass:   247.11816 amu.
 Principal axes and moments of inertia in atomic units:
                           1         2         3
     Eigenvalues --  3049.016014423.405695510.94556
           X            0.99951   0.03095   0.00530
           Y           -0.03082   0.99929  -0.02159
           Z           -0.00596   0.02142   0.99975
 This molecule is an asymmetric top.
 Rotational symmetry number  1.
 Warning -- assumption of classical behavior for rotation
           may cause significant error
 Rotational temperatures (Kelvin)      0.02841     0.01958     0.01572
 Rotational constants (GHZ):           0.59191     0.40800     0.32748
 Zero-point vibrational energy     804859.5 (Joules/Mol)
                                  192.36603 (Kcal/Mol)
 Warning -- explicit consideration of  27 degrees of freedom as
           vibrations may cause significant error
 Vibrational temperatures:     54.24    76.14    96.71   114.33   127.82
          (Kelvin)            134.10   161.84   179.00   226.17   248.13
                              267.84   277.82   315.94   368.12   384.09
                              420.47   425.45   476.34   495.79   513.56
                              571.68   610.59   652.98   682.14   746.33
                              822.66   887.79   946.79  1039.95  1070.30
                             1113.44  1172.35  1215.30  1290.20  1366.61
                             1379.01  1405.62  1418.61  1445.77  1492.22
                             1507.81  1508.41  1536.96  1582.52  1622.33
                             1645.76  1662.30  1688.99  1691.84  1693.71
                             1697.29  1701.32  1763.62  1772.82  1785.02
                             1793.79  1830.97  1883.62  1900.52  1903.90
                             1930.38  1939.41  1964.82  1965.39  1993.30
                             2000.90  2020.92  2054.84  2070.39  2073.33
                             2087.48  2109.91  2121.23  2124.30  2129.16
                             2148.15  2150.28  2150.81  2156.79  2158.59
                             2162.35  2174.76  2336.52  4302.03  4326.11
                             4352.80  4357.25  4381.62  4395.61  4411.13
                             4415.24  4430.82  4458.31  4462.79  4474.04
                             4533.12  4536.93  4554.13  4565.59  4567.68
                             4576.74  4610.75

 Zero-point correction=                           0.306555 (Hartree/Particle)
 Thermal correction to Energy=                    0.324379
 Thermal correction to Enthalpy=                  0.325323
 Thermal correction to Gibbs Free Energy=         0.260493
 Sum of electronic and zero-point Energies=           -880.619539
 Sum of electronic and thermal Energies=              -880.601715
 Sum of electronic and thermal Enthalpies=            -880.600771
 Sum of electronic and thermal Free Energies=         -880.665601

                     E (Thermal)             CV                S
                      KCal/Mol        Cal/Mol-Kelvin    Cal/Mol-Kelvin
 Total                  203.551             65.088            136.447
 Electronic               0.000              0.000              0.000
 Translational            0.889              2.981             42.415
 Rotational               0.889              2.981             32.675
 Vibrational            201.773             59.126             61.357
 Vibration     1          0.594              1.982              5.377
 Vibration     2          0.596              1.976              4.705
 Vibration     3          0.598              1.970              4.233
 Vibration     4          0.600              1.963              3.904
 Vibration     5          0.602              1.957              3.685
 Vibration     6          0.602              1.954              3.592
 Vibration     7          0.607              1.939              3.226
 Vibration     8          0.610              1.929              3.031
 Vibration     9          0.621              1.895              2.583
 Vibration    10          0.626              1.876              2.408
 Vibration    11          0.632              1.859              2.266
 Vibration    12          0.635              1.849              2.198
 Vibration    13          0.647              1.811              1.963
 Vibration    14          0.666              1.753              1.690
 Vibration    15          0.672              1.734              1.616
 Vibration    16          0.688              1.688              1.461
 Vibration    17          0.690              1.682              1.441
 Vibration    18          0.713              1.613              1.255
 Vibration    19          0.723              1.586              1.191
 Vibration    20          0.732              1.561              1.135
 Vibration    21          0.764              1.476              0.972
 Vibration    22          0.786              1.417              0.877
 Vibration    23          0.812              1.352              0.784
 Vibration    24          0.831              1.307              0.726
 Vibration    25          0.874              1.209              0.613
 Vibration    26          0.928              1.092              0.501
 Vibration    27          0.977              0.996              0.421

 Normal termination of Gaussian 09 at Tue Oct 24 16:09:02 2017.
