 Gaussian 09, Revision D.01,
 Gaussian 09:  EM64L-G09RevD.01 24-Apr-2013

 -------------------------------------------------------------------
 #P PBE1PBE/6-311+G(d,p) opt optcyc=999 freq EmpiricalDispersion=GD3
 -------------------------------------------------------------------

 -------
 disacch
 -------
 Symbolic Z-matrix:
 Charge =  1 Multiplicity = 1

 SCF Done:  E(RPBE1PBE) =  -880.922233486     A.U. after   15 cycles
 SCF Done:  E(RPBE1PBE) =  -880.926221228     A.U. after   13 cycles
 SCF Done:  E(RPBE1PBE) =  -880.926389206     A.U. after   17 cycles
 SCF Done:  E(RPBE1PBE) =  -880.926984134     A.U. after   14 cycles
 SCF Done:  E(RPBE1PBE) =  -880.927149986     A.U. after   17 cycles
 SCF Done:  E(RPBE1PBE) =  -880.927214699     A.U. after   14 cycles
 SCF Done:  E(RPBE1PBE) =  -880.927238159     A.U. after   14 cycles
 SCF Done:  E(RPBE1PBE) =  -880.927249712     A.U. after   16 cycles
 SCF Done:  E(RPBE1PBE) =  -880.927251079     A.U. after   14 cycles
 SCF Done:  E(RPBE1PBE) =  -880.927251488     A.U. after   13 cycles
 SCF Done:  E(RPBE1PBE) =  -880.927251940     A.U. after   14 cycles
 SCF Done:  E(RPBE1PBE) =  -880.927252108     A.U. after    8 cycles
 SCF Done:  E(RPBE1PBE) =  -880.927252382     A.U. after   13 cycles
 SCF Done:  E(RPBE1PBE) =  -880.927252728     A.U. after   14 cycles
 SCF Done:  E(RPBE1PBE) =  -880.927253196     A.U. after   10 cycles
 SCF Done:  E(RPBE1PBE) =  -880.927253837     A.U. after   10 cycles
 SCF Done:  E(RPBE1PBE) =  -880.927254043     A.U. after   10 cycles
 SCF Done:  E(RPBE1PBE) =  -880.927254057     A.U. after    9 cycles
 SCF Done:  E(RPBE1PBE) =  -880.927254061     A.U. after   10 cycles
 Optimization completed on the basis of negligible forces.
    -- Stationary point found.
 Normal termination of Gaussian 09 at Tue Oct 24 15:58:07 2017.

 ----------------------------------------------------------------------
 #P Geom=AllCheck Guess=TCheck SCRF=Check GenChk RPBE1PBE/6-311+G(d,p)
 Freq
 ----------------------------------------------------------------------

 Structure from the checkpoint file:  "Ac-4_cGalMe.chk"
 -------
 disacch
 -------
 Charge =  1 Multiplicity = 1

                         Standard orientation:
 ---------------------------------------------------------------------
 Center     Atomic      Atomic             Coordinates (Angstroms)
 Number     Number       Type             X           Y           Z
 ---------------------------------------------------------------------
      1          6           0        2.085484   -1.194519   -1.204675
      2          6           0        0.598844   -1.087794   -0.930192
      3          6           0       -0.031025    0.272762   -1.164915
      4          6           0       -1.493605    0.286261   -0.760608
      5          6           0       -1.637439   -0.158522    0.714430
      6          6           0       -0.310765   -0.720497    1.230772
      7          8           0        0.361533   -1.556771    0.406921
      8          8           0       -1.987868    1.564948   -0.994767
      9          8           0        0.688088    1.349067   -0.471548
     10          8           0        2.789082   -0.346438   -0.338640
     11          1           0        2.278371   -0.945835   -2.259660
     12          1           0        2.375250   -2.242387   -1.044659
     13          1           0        0.086693   -1.776937   -1.613893
     14          1           0        0.077114    0.563785   -2.208950
     15          1           0       -1.996255   -0.453962   -1.403841
     16          1           0       -1.859702    0.735980    1.304865
     17          1           0       -0.433623   -1.213321    2.193085
     18          8           0       -2.701333   -1.025962    0.965928
     19          6           0        4.181212   -0.612997   -0.319475
     20          1           0        4.633605    0.080330    0.389752
     21          1           0        4.378245   -1.639992    0.010299
     22          1           0        4.627673   -0.456150   -1.308633
     23          6           0       -2.629120   -2.340740    0.433792
     24          1           0       -1.832014   -2.930213    0.898353
     25          1           0       -3.589628   -2.802862    0.656257
     26          1           0       -2.488419   -2.342915   -0.654348
     27          6           0       -3.407607    1.647135   -0.963712
     28          1           0       -3.848615    1.002564   -1.733900
     29          1           0       -3.809363    1.361344    0.014575
     30          1           0       -3.660747    2.685407   -1.171586
     31          6           0        0.977732    1.321218    0.770517
     32          8           0        0.570750    0.453519    1.608159
     33          6           0        1.844342    2.403750    1.265741
     34          1           0        1.564723    3.346873    0.794316
     35          1           0        2.863636    2.158105    0.948684
     36          1           0        1.802703    2.466938    2.350804
 ---------------------------------------------------------------------

 SCF Done:  E(RPBE1PBE) =  -880.927254061     A.U. after    5 cycles

 The electronic state is 1-A.
 Alpha  occ. eigenvalues --  -19.45310 -19.44976 -19.39715 -19.35379 -19.35227
 Alpha  occ. eigenvalues --  -19.35096 -10.57314 -10.50734 -10.46780 -10.45391
 Alpha  occ. eigenvalues --  -10.43805 -10.43552 -10.41713 -10.38751 -10.38659
 Alpha  occ. eigenvalues --  -10.38482 -10.37925  -1.37247  -1.29520  -1.26629
 Alpha  occ. eigenvalues --   -1.22484  -1.21346  -1.21032  -1.02120  -0.99255
 Alpha  occ. eigenvalues --   -0.94999  -0.91156  -0.88181  -0.86087  -0.84253
 Alpha  occ. eigenvalues --   -0.82399  -0.79042  -0.78261  -0.77232  -0.73385
 Alpha  occ. eigenvalues --   -0.71924  -0.68021  -0.67245  -0.66944  -0.66212
 Alpha  occ. eigenvalues --   -0.65082  -0.64195  -0.63345  -0.62448  -0.61961
 Alpha  occ. eigenvalues --   -0.61369  -0.59872  -0.59031  -0.58312  -0.57653
 Alpha  occ. eigenvalues --   -0.57032  -0.56562  -0.55695  -0.55319  -0.54354
 Alpha  occ. eigenvalues --   -0.53403  -0.52769  -0.51918  -0.49677  -0.48307
 Alpha  occ. eigenvalues --   -0.47733  -0.47664  -0.45491  -0.43498  -0.41553
 Alpha  occ. eigenvalues --   -0.39883
 Alpha virt. eigenvalues --   -0.19798  -0.12011  -0.10206  -0.09495  -0.08636
 Alpha virt. eigenvalues --   -0.08290  -0.08047  -0.07161  -0.06906  -0.06513
 Alpha virt. eigenvalues --   -0.05953  -0.05724  -0.05087  -0.04788  -0.04409

 Mulliken charges:
               1
     1  C   -0.840226
     2  C   -0.093403
     3  C    0.115320
     4  C   -0.204157
     5  C   -0.504114
     6  C   -0.305667
     7  O    0.111411
     8  O   -0.020864
     9  O    0.295907
    10  O   -0.121583
    11  H    0.204688
    12  H    0.218810
    13  H    0.246975
    14  H    0.250657
    15  H    0.216134
    16  H    0.288243
    17  H    0.280938
    18  O    0.077483
    19  C   -0.278627
    20  H    0.173822
    21  H    0.176558
    22  H    0.176474
    23  C   -0.320816
    24  H    0.189815
    25  H    0.214546
    26  H    0.166672
    27  C   -0.234433
    28  H    0.177658
    29  H    0.190164
    30  H    0.196158
    31  C    0.171791
    32  O    0.284270
    33  C   -1.212314
    34  H    0.236973
    35  H    0.242959
    36  H    0.231775
 Sum of Mulliken charges =   1.00000

 Dipole moment (field-independent basis, Debye):
    X=              2.0776    Y=              0.1890    Z=             -0.8978  Tot=              2.2712
 Quadrupole moment (field-independent basis, Debye-Ang):
   XX=            -67.6291   YY=            -82.1638   ZZ=            -87.8475
   XY=              3.8344   XZ=              3.0012   YZ=              7.7157

  Exact polarizability: 156.367   6.063 137.755   2.505   2.973 124.845
 Approx polarizability: 183.557   8.981 188.985   1.591   1.160 187.909

                      1                      2                      3
                      A                      A                      A
 Frequencies --     37.1620                48.7326                59.8649
 Red. masses --      3.3500                 2.6319                 1.2009
 Frc consts  --      0.0027                 0.0037                 0.0025
 IR Inten    --      1.0611                 0.0863                 1.0979

                      4                      5                      6
                      A                      A                      A
 Frequencies --     80.5404                93.2119               101.3634
 Red. masses --      3.2650                 1.7662                 2.6346
 Frc consts  --      0.0125                 0.0090                 0.0159
 IR Inten    --      0.9722                 2.0575                 4.9259

                      7                      8                      9
                      A                      A                      A
 Frequencies --    106.0818               115.1977               153.6412
 Red. masses --      2.2554                 2.7329                 1.7831
 Frc consts  --      0.0150                 0.0214                 0.0248
 IR Inten    --      4.3423                 2.8527                 0.1759

                     10                     11                     12
                      A                      A                      A
 Frequencies --    172.0464               186.7936               196.4149
 Red. masses --      2.3802                 1.5689                 2.0922
 Frc consts  --      0.0415                 0.0323                 0.0476
 IR Inten    --      2.1444                 2.0984                 2.6635

                     13                     14                     15
                      A                      A                      A
 Frequencies --    220.1584               239.4730               268.5091
 Red. masses --      2.8310                 2.2140                 3.6831
 Frc consts  --      0.0808                 0.0748                 0.1565
 IR Inten    --      0.9002                 3.2453                 0.7446

                     16                     17                     18
                      A                      A                      A
 Frequencies --    290.0173               298.7505               319.9862
 Red. masses --      4.2002                 3.8233                 4.8560
 Frc consts  --      0.2081                 0.2010                 0.2929
 IR Inten    --      2.3707                 2.0475                 1.4011

                     19                     20                     21
                      A                      A                      A
 Frequencies --    330.8015               357.9612               375.7682
 Red. masses --      4.7263                 3.7012                 3.1895
 Frc consts  --      0.3047                 0.2794                 0.2653
 IR Inten    --      3.6266                 9.6836                 2.7579

                     22                     23                     24
                      A                      A                      A
 Frequencies --    432.3894               444.7846               472.8205
 Red. masses --      5.5766                 4.7246                 4.6580
 Frc consts  --      0.6143                 0.5507                 0.6135
 IR Inten    --      1.3393                10.3550                 5.1028

                     25                     26                     27
                      A                      A                      A
 Frequencies --    510.2809               589.7840               619.8833
 Red. masses --      4.6097                 4.1054                 3.5586
 Frc consts  --      0.7072                 0.8414                 0.8057
 IR Inten    --      5.4078                 6.1734                18.7744

                     28                     29                     30
                      A                      A                      A
 Frequencies --    664.9535               754.0590               756.5036
 Red. masses --      5.4153                 4.7979                 5.4468
 Frc consts  --      1.4108                 1.6073                 1.8366
 IR Inten    --     22.6310                42.5080                62.1088

                     31                     32                     33
                      A                      A                      A
 Frequencies --    792.9374               810.2384               853.9060
 Red. masses --      4.8578                 5.9762                 3.7951
 Frc consts  --      1.7996                 2.3115                 1.6304
 IR Inten    --     29.0014                13.8533                17.4773

                     34                     35                     36
                      A                      A                      A
 Frequencies --    884.2982               935.2807               952.5157
 Red. masses --      4.8062                 2.9429                 2.6776
 Frc consts  --      2.2144                 1.5167                 1.4313
 IR Inten    --     18.6710                 7.1884                 2.6460

                     37                     38                     39
                      A                      A                      A
 Frequencies --    975.0744               993.1182              1004.4120
 Red. masses --      3.1321                 3.5320                 2.2309
 Frc consts  --      1.7545                 2.0525                 1.3260
 IR Inten    --     41.5735                42.4907                 7.2261

                     40                     41                     42
                      A                      A                      A
 Frequencies --   1019.9157              1047.2327              1052.9229
 Red. masses --      3.5487                 1.8311                 1.6553
 Frc consts  --      2.1750                 1.1832                 1.0813
 IR Inten    --     10.3588                25.3814                 6.2778

                     43                     44                     45
                      A                      A                      A
 Frequencies --   1082.9245              1087.6541              1117.5885
 Red. masses --      2.5243                 3.8099                 2.2585
 Frc consts  --      1.7442                 2.6555                 1.6620
 IR Inten    --     42.5223               129.9147                27.2612

                     46                     47                     48
                      A                      A                      A
 Frequencies --   1151.5633              1166.0893              1174.2404
 Red. masses --      2.3191                 2.0347                 1.5346
 Frc consts  --      1.8119                 1.6301                 1.2467
 IR Inten    --     39.1924                73.5839                34.9021

                     49                     50                     51
                      A                      A                      A
 Frequencies --   1174.9365              1181.0544              1185.3337
 Red. masses --      1.4637                 1.5560                 1.7781
 Frc consts  --      1.1905                 1.2788                 1.4719
 IR Inten    --     11.4879                16.5192                18.0473

                     52                     53                     54
                      A                      A                      A
 Frequencies --   1192.8095              1224.4183              1225.6703
 Red. masses --      2.2343                 2.2252                 1.8766
 Frc consts  --      1.8730                 1.9655                 1.6610
 IR Inten    --     62.3276                60.7905                44.1505

                     55                     56                     57
                      A                      A                      A
 Frequencies --   1234.9995              1240.0223              1281.0727
 Red. masses --      2.4517                 2.4372                 1.2356
 Frc consts  --      2.2032                 2.2080                 1.1947
 IR Inten    --    115.6783                46.4333                12.8862

                     58                     59                     60
                      A                      A                      A
 Frequencies --   1293.2442              1309.4604              1314.8187
 Red. masses --      1.2594                 1.3121                 1.5552
 Frc consts  --      1.2410                 1.3256                 1.5840
 IR Inten    --     13.2435                18.8768                13.2149

                     61                     62                     63
                      A                      A                      A
 Frequencies --   1339.8545              1358.3863              1364.0067
 Red. masses --      1.4985                 1.3186                 1.2514
 Frc consts  --      1.5850                 1.4335                 1.3717
 IR Inten    --     21.6441                37.6119                 1.2367

                     64                     65                     66
                      A                      A                      A
 Frequencies --   1384.2357              1391.0141              1412.3876
 Red. masses --      1.4064                 1.3609                 1.7452
 Frc consts  --      1.5877                 1.5514                 2.0512
 IR Inten    --     22.4126                 6.2774                26.0277

                     67                     68                     69
                      A                      A                      A
 Frequencies --   1416.1574              1425.3332              1430.3916
 Red. masses --      1.3909                 1.4193                 1.5101
 Frc consts  --      1.6435                 1.6989                 1.8204
 IR Inten    --     31.9050                 6.0616                40.2730

                     70                     71                     72
                      A                      A                      A
 Frequencies --   1442.1290              1451.4544              1475.2307
 Red. masses --      1.1453                 1.1512                 1.1125
 Frc consts  --      1.4034                 1.4289                 1.4264
 IR Inten    --     32.0469                37.7365                 9.1253

                     73                     74                     75
                      A                      A                      A
 Frequencies --   1477.2883              1478.5014              1484.0853
 Red. masses --      1.1368                 1.1240                 1.0477
 Frc consts  --      1.4617                 1.4476                 1.3596
 IR Inten    --      3.2349                 5.8820                13.3524

                     76                     77                     78
                      A                      A                      A
 Frequencies --   1491.6109              1493.4891              1494.8496
 Red. masses --      1.0496                 1.0697                 1.0490
 Frc consts  --      1.3759                 1.4058                 1.3810
 IR Inten    --     14.2328                14.8567                12.1558

                     79                     80                     81
                      A                      A                      A
 Frequencies --   1498.9565              1503.4415              1510.4797
 Red. masses --      1.0728                 1.0765                 1.0908
 Frc consts  --      1.4201                 1.4336                 1.4663
 IR Inten    --     12.8358                14.7482                 9.4700

                     82                     83                     84
                      A                      A                      A
 Frequencies --   1521.1176              1626.1677              3004.4054
 Red. masses --      4.0581                 5.3242                 1.0806
 Frc consts  --      5.5322                 8.2954                 5.7468
 IR Inten    --    278.9117               256.9892                10.9541

                     85                     86                     87
                      A                      A                      A
 Frequencies --   3007.7660              3025.2986              3026.8854
 Red. masses --      1.0588                 1.0345                 1.0387
 Frc consts  --      5.6436                 5.5787                 5.6069
 IR Inten    --     20.8545                45.5339                29.9542

                     88                     89                     90
                      A                      A                      A
 Frequencies --   3027.8507              3055.7936              3064.1870
 Red. masses --      1.0355                 1.1044                 1.0854
 Frc consts  --      5.5934                 6.0761                 6.0046
 IR Inten    --     27.3863                16.9228                 8.0799

                     91                     92                     93
                      A                      A                      A
 Frequencies --   3073.0388              3092.2274              3096.1800
 Red. masses --      1.0394                 1.0860                 1.1070
 Frc consts  --      5.7830                 6.1180                 6.2525
 IR Inten    --     12.4143                 5.4801                19.9973

                     94                     95                     96
                      A                      A                      A
 Frequencies --   3099.1421              3100.5300              3154.3249
 Red. masses --      1.1026                 1.1055                 1.0952
 Frc consts  --      6.2396                 6.2614                 6.4203
 IR Inten    --     23.4872                25.1026                 5.1310

                     97                     98                     99
                      A                      A                      A
 Frequencies --   3159.0608              3161.0402              3173.0757
 Red. masses --      1.1015                 1.0888                 1.1005
 Frc consts  --      6.4764                 6.4102                 6.5283
 IR Inten    --     10.9786                 1.1707                 5.8216

                    100                    101                    102
                      A                      A                      A
 Frequencies --   3177.0734              3179.1037              3207.5916
 Red. masses --      1.1016                 1.0915                 1.1065
 Frc consts  --      6.5511                 6.4993                 6.7075
 IR Inten    --      6.8763                 1.0510                 2.3251

 - Thermochemistry -
 -------------------
 Temperature   298.150 Kelvin.  Pressure   1.00000 Atm.
 Atom     1 has atomic number  6 and mass  12.00000

 Molecular mass:   247.11816 amu.
 Principal axes and moments of inertia in atomic units:
                           1         2         3
     Eigenvalues --  2373.696414694.209885400.53571
           X            0.99999   0.00247   0.00475
           Y           -0.00267   0.99911   0.04208
           Z           -0.00464  -0.04210   0.99910
 This molecule is an asymmetric top.
 Rotational symmetry number  1.
 Warning -- assumption of classical behavior for rotation
           may cause significant error
 Rotational temperatures (Kelvin)      0.03649     0.01845     0.01604
 Rotational constants (GHZ):           0.76031     0.38446     0.33418
 Zero-point vibrational energy     805163.5 (Joules/Mol)
                                  192.43870 (Kcal/Mol)
 Warning -- explicit consideration of  27 degrees of freedom as
           vibrations may cause significant error
 Vibrational temperatures:     53.47    70.12    86.13   115.88   134.11
          (Kelvin)            145.84   152.63   165.74   221.06   247.54
                              268.75   282.60   316.76   344.55   386.32
                              417.27   429.83   460.39   475.95   515.03
                              540.65   622.11   639.95   680.28   734.18
                              848.57   891.87   956.72  1084.92  1088.44
                             1140.86  1165.75  1228.58  1272.31  1345.66
                             1370.46  1402.91  1428.87  1445.12  1467.43
                             1506.73  1514.92  1558.08  1564.89  1607.96
                             1656.84  1677.74  1689.47  1690.47  1699.27
                             1705.43  1716.18  1761.66  1763.46  1776.89
                             1784.11  1843.18  1860.69  1884.02  1891.73
                             1927.75  1954.41  1962.50  1991.60  2001.36
                             2032.11  2037.53  2050.73  2058.01  2074.90
                             2088.32  2122.53  2125.49  2127.23  2135.27
                             2146.09  2148.79  2150.75  2156.66  2163.11
                             2173.24  2188.55  2339.69  4322.66  4327.50
                             4352.72  4355.01  4356.40  4396.60  4408.68
                             4421.41  4449.02  4454.71  4458.97  4460.97
                             4538.36  4545.18  4548.03  4565.34  4571.09
                             4574.02  4615.00

 Zero-point correction=                           0.306671 (Hartree/Particle)
 Thermal correction to Energy=                    0.324566
 Thermal correction to Enthalpy=                  0.325510
 Thermal correction to Gibbs Free Energy=         0.260479
 Sum of electronic and zero-point Energies=           -880.620583
 Sum of electronic and thermal Energies=              -880.602688
 Sum of electronic and thermal Enthalpies=            -880.601744
 Sum of electronic and thermal Free Energies=         -880.666775

                     E (Thermal)             CV                S
                      KCal/Mol        Cal/Mol-Kelvin    Cal/Mol-Kelvin
 Total                  203.668             65.083            136.870
 Electronic               0.000              0.000              0.000
 Translational            0.889              2.981             42.415
 Rotational               0.889              2.981             32.465
 Vibrational            201.891             59.121             61.990
 Vibration     1          0.594              1.982              5.405
 Vibration     2          0.595              1.978              4.868
 Vibration     3          0.597              1.973              4.462
 Vibration     4          0.600              1.962              3.878
 Vibration     5          0.602              1.954              3.592
 Vibration     6          0.604              1.948              3.428
 Vibration     7          0.605              1.944              3.339
 Vibration     8          0.608              1.937              3.179
 Vibration     9          0.619              1.899              2.627
 Vibration    10          0.626              1.877              2.413
 Vibration    11          0.632              1.858              2.259
 Vibration    12          0.636              1.845              2.166
 Vibration    13          0.647              1.810              1.958
 Vibration    14          0.657              1.780              1.807
 Vibration    15          0.673              1.731              1.606
 Vibration    16          0.686              1.692              1.474
 Vibration    17          0.692              1.676              1.424
 Vibration    18          0.706              1.635              1.310
 Vibration    19          0.713              1.614              1.256
 Vibration    20          0.733              1.559              1.131
 Vibration    21          0.747              1.522              1.056
 Vibration    22          0.793              1.400              0.851
 Vibration    23          0.804              1.372              0.812
 Vibration    24          0.830              1.310              0.730
 Vibration    25          0.865              1.227              0.633
 Vibration    26          0.947              1.054              0.468
 Vibration    27          0.980              0.990              0.417

 Optimization completed on the basis of negligible forces.
    -- Stationary point found.
 Normal termination of Gaussian 09 at Tue Oct 24 16:21:39 2017.
