 Gaussian 09, Revision D.01,
 Gaussian 09:  EM64L-G09RevD.01 24-Apr-2013

 -------------------------------------------------------------------
 #P PBE1PBE/6-311+G(d,p) opt optcyc=999 freq EmpiricalDispersion=GD3
 -------------------------------------------------------------------

 -------
 disacch
 -------
 Symbolic Z-matrix:
 Charge =  1 Multiplicity = 1

 SCF Done:  E(RPBE1PBE) =  -880.909260225     A.U. after   17 cycles
 SCF Done:  E(RPBE1PBE) =  -880.909060901     A.U. after   12 cycles
 SCF Done:  E(RPBE1PBE) =  -880.911764990     A.U. after   10 cycles
 SCF Done:  E(RPBE1PBE) =  -880.911243831     A.U. after   19 cycles
 SCF Done:  E(RPBE1PBE) =  -880.913272665     A.U. after   16 cycles
 SCF Done:  E(RPBE1PBE) =  -880.911141767     A.U. after   13 cycles
 SCF Done:  E(RPBE1PBE) =  -880.913414803     A.U. after   13 cycles
 SCF Done:  E(RPBE1PBE) =  -880.913196813     A.U. after   18 cycles
 SCF Done:  E(RPBE1PBE) =  -880.913531298     A.U. after   14 cycles
 SCF Done:  E(RPBE1PBE) =  -880.913541770     A.U. after   13 cycles
 SCF Done:  E(RPBE1PBE) =  -880.913683449     A.U. after   15 cycles
 SCF Done:  E(RPBE1PBE) =  -880.913691834     A.U. after   12 cycles
 SCF Done:  E(RPBE1PBE) =  -880.913696867     A.U. after   13 cycles
 SCF Done:  E(RPBE1PBE) =  -880.913697742     A.U. after   16 cycles
 SCF Done:  E(RPBE1PBE) =  -880.913697808     A.U. after   12 cycles
 SCF Done:  E(RPBE1PBE) =  -880.913698299     A.U. after    8 cycles
 Optimization completed.
    -- Stationary point found.
 Normal termination of Gaussian 09 at Tue Jan 10 07:02:02 2017.

 ----------------------------------------------------------------------
 #P Geom=AllCheck Guess=TCheck SCRF=Check GenChk RPBE1PBE/6-311+G(d,p)
 Freq
 ----------------------------------------------------------------------

 Structure from the checkpoint file:  "Ac-4_cGalMe.chk"
 -------
 disacch
 -------
 Charge =  1 Multiplicity = 1

                         Standard orientation:
 ---------------------------------------------------------------------
 Center     Atomic      Atomic             Coordinates (Angstroms)
 Number     Number       Type             X           Y           Z
 ---------------------------------------------------------------------
      1          6           0        2.292986   -0.761192   -1.425010
      2          6           0        0.771484   -0.839118   -1.349900
      3          6           0        0.093008    0.514305   -1.203390
      4          6           0       -1.414559    0.430777   -0.863621
      5          6           0       -1.727866   -0.810552   -0.074964
      6          6           0       -0.811914   -1.775764    0.148584
      7          8           0        0.476222   -1.738499   -0.295790
      8          8           0       -1.823393    1.536922   -0.117051
      9          8           0        0.803260    1.398512   -0.281272
     10          8           0        2.842057   -0.371177   -0.187915
     11          1           0        2.581296   -0.031895   -2.189985
     12          1           0        2.673286   -1.740797   -1.733278
     13          1           0        0.382193   -1.256623   -2.291808
     14          1           0        0.229426    1.057476   -2.138190
     15          1           0       -1.965874    0.378047   -1.815103
     16          1           0       -0.320228   -0.182333    1.257773
     17          1           0       -1.018881   -2.679282    0.706852
     18          8           0       -3.007263   -0.839490    0.311956
     19          6           0        3.480206   -1.422755    0.526059
     20          1           0        3.846714   -0.992778    1.458974
     21          1           0        2.777992   -2.231583    0.749418
     22          1           0        4.332912   -1.815488   -0.038758
     23          6           0       -3.455334   -1.965585    1.051270
     24          1           0       -3.341966   -2.886838    0.468748
     25          1           0       -2.911484   -2.052176    1.998850
     26          1           0       -4.509252   -1.788913    1.254150
     27          6           0       -2.077456    2.702247   -0.887057
     28          1           0       -1.163815    3.086550   -1.358394
     29          1           0       -2.831975    2.502083   -1.656334
     30          1           0       -2.462055    3.451354   -0.196475
     31          6           0        0.949885    1.252529    0.979394
     32          8           0        0.338432    0.416283    1.713584
     33          6           0        1.921104    2.154454    1.618949
     34          1           0        1.832650    3.156480    1.197415
     35          1           0        2.913220    1.769350    1.357305
     36          1           0        1.792070    2.160874    2.698867
 ---------------------------------------------------------------------

 SCF Done:  E(RPBE1PBE) =  -880.913698299     A.U. after    4 cycles

 The electronic state is 1-A.
 Alpha  occ. eigenvalues --  -19.44934 -19.44305 -19.38718 -19.37192 -19.35697
 Alpha  occ. eigenvalues --  -19.34459 -10.57167 -10.46540 -10.44500 -10.44483
 Alpha  occ. eigenvalues --  -10.43348 -10.42398 -10.41170 -10.38951 -10.38839
 Alpha  occ. eigenvalues --  -10.38088 -10.37698  -1.36429  -1.28596  -1.26185
 Alpha  occ. eigenvalues --   -1.24489  -1.21897  -1.20209  -1.01751  -0.97347
 Alpha  occ. eigenvalues --   -0.95567  -0.89919  -0.88051  -0.85760  -0.84130
 Alpha  occ. eigenvalues --   -0.83111  -0.80963  -0.77822  -0.76211  -0.71920
 Alpha  occ. eigenvalues --   -0.71317  -0.68908  -0.68223  -0.67363  -0.65999
 Alpha  occ. eigenvalues --   -0.64464  -0.63033  -0.62865  -0.61772  -0.61174
 Alpha  occ. eigenvalues --   -0.60616  -0.59620  -0.58368  -0.58033  -0.57675
 Alpha  occ. eigenvalues --   -0.56873  -0.56351  -0.56121  -0.55039  -0.54149
 Alpha  occ. eigenvalues --   -0.53096  -0.52439  -0.51358  -0.50258  -0.48339
 Alpha  occ. eigenvalues --   -0.47989  -0.46906  -0.46279  -0.42289  -0.40804
 Alpha  occ. eigenvalues --   -0.37157
 Alpha virt. eigenvalues --   -0.19227  -0.13538  -0.11149  -0.09767  -0.09304
 Alpha virt. eigenvalues --   -0.08174  -0.07740  -0.07197  -0.06641  -0.06324
 Alpha virt. eigenvalues --   -0.06030  -0.05812  -0.05732  -0.04498  -0.03986

 Mulliken charges:
               1
     1  C   -0.766516
     2  C   -0.324878
     3  C    0.267189
     4  C   -1.124266
     5  C    0.213078
     6  C    0.025238
     7  O   -0.065051
     8  O    0.065850
     9  O    0.216834
    10  O   -0.080208
    11  H    0.217804
    12  H    0.226056
    13  H    0.246542
    14  H    0.251060
    15  H    0.247614
    16  H    0.428973
    17  H    0.195441
    18  O   -0.062700
    19  C   -0.351657
    20  H    0.173231
    21  H    0.190870
    22  H    0.180417
    23  C   -0.320974
    24  H    0.188367
    25  H    0.188717
    26  H    0.206663
    27  C   -0.294467
    28  H    0.170737
    29  H    0.185007
    30  H    0.203392
    31  C    0.240481
    32  O   -0.011635
    33  C   -0.847669
    34  H    0.230883
    35  H    0.257825
    36  H    0.231755
 Sum of Mulliken charges =   1.00000

 Dipole moment (field-independent basis, Debye):
    X=              1.0571    Y=              0.6053    Z=             -0.8106  Tot=              1.4632
 Quadrupole moment (field-independent basis, Debye-Ang):
   XX=            -74.5438   YY=            -76.4029   ZZ=            -83.3797
   XY=              4.8080   XZ=              1.9627   YZ=             -0.6856

  Exact polarizability: 161.182  -0.258 142.733   0.988  -1.237 129.987
 Approx polarizability: 203.029  -6.660 195.183   1.999  -4.706 191.651

                      1                      2                      3
                      A                      A                      A
 Frequencies --     49.0588                57.8122                72.7939
 Red. masses --      4.1554                 4.2453                 2.6381
 Frc consts  --      0.0059                 0.0084                 0.0082
 IR Inten    --      0.2289                 0.4768                 1.4407

                      4                      5                      6
                      A                      A                      A
 Frequencies --     81.7206                92.5049               102.6290
 Red. masses --      2.4895                 2.7083                 1.5206
 Frc consts  --      0.0098                 0.0137                 0.0094
 IR Inten    --      1.7765                 3.1377                 3.2771

                      7                      8                      9
                      A                      A                      A
 Frequencies --    108.7010               118.7948               133.5630
 Red. masses --      2.6960                 2.2716                 4.2477
 Frc consts  --      0.0188                 0.0189                 0.0446
 IR Inten    --      1.7758                 9.0440                 3.2120

                     10                     11                     12
                      A                      A                      A
 Frequencies --    171.7253               182.0497               198.4350
 Red. masses --      1.2562                 1.3919                 3.0207
 Frc consts  --      0.0218                 0.0272                 0.0701
 IR Inten    --      0.3414                 0.5122                11.3034

                     13                     14                     15
                      A                      A                      A
 Frequencies --    200.1640               235.8796               242.6139
 Red. masses --      4.6821                 1.9649                 3.2119
 Frc consts  --      0.1105                 0.0644                 0.1114
 IR Inten    --      8.9489                 0.6915                 0.3004

                     16                     17                     18
                      A                      A                      A
 Frequencies --    248.2657               265.2537               303.5750
 Red. masses --      2.5327                 2.5015                 3.9415
 Frc consts  --      0.0920                 0.1037                 0.2140
 IR Inten    --      2.2426                 1.6991                 4.5157

                     19                     20                     21
                      A                      A                      A
 Frequencies --    321.8441               356.8288               363.9588
 Red. masses --      5.9442                 4.0740                 3.9683
 Frc consts  --      0.3628                 0.3056                 0.3097
 IR Inten    --      0.9708                 2.7511                 1.1344

                     22                     23                     24
                      A                      A                      A
 Frequencies --    374.1252               427.5731               455.8464
 Red. masses --      4.7029                 2.2896                 2.9016
 Frc consts  --      0.3878                 0.2466                 0.3552
 IR Inten    --      0.0732                 1.5322                 3.5441

                     25                     26                     27
                      A                      A                      A
 Frequencies --    495.9179               521.9784               569.0551
 Red. masses --      4.3266                 4.8952                 2.7281
 Frc consts  --      0.6269                 0.7858                 0.5205
 IR Inten    --      1.4846                16.8684                12.6306

                     28                     29                     30
                      A                      A                      A
 Frequencies --    610.2635               641.5022               682.7526
 Red. masses --      4.2208                 4.8044                 5.2481
 Frc consts  --      0.9261                 1.1649                 1.4414
 IR Inten    --      3.6464                 1.8097                 7.3550

                     31                     32                     33
                      A                      A                      A
 Frequencies --    749.4961               773.3834               805.1705
 Red. masses --      5.5121                 5.4278                 1.4440
 Frc consts  --      1.8243                 1.9128                 0.5516
 IR Inten    --      8.2835                16.5934                51.7268

                     34                     35                     36
                      A                      A                      A
 Frequencies --    813.6722               864.6529               876.0018
 Red. masses --      3.9443                 3.1645                 1.3481
 Frc consts  --      1.5386                 1.3939                 0.6095
 IR Inten    --      6.2402                 5.2816                27.0964

                     37                     38                     39
                      A                      A                      A
 Frequencies --    920.4931               938.6978               969.7021
 Red. masses --      2.6844                 2.7080                 2.3889
 Frc consts  --      1.3401                 1.4059                 1.3235
 IR Inten    --      8.1283                27.1496                 5.8646

                     40                     41                     42
                      A                      A                      A
 Frequencies --    996.1667              1029.1115              1036.8701
 Red. masses --      3.6104                 3.1884                 3.4019
 Frc consts  --      2.1109                 1.9895                 2.1549
 IR Inten    --     16.8948                35.2682                 4.7433

                     43                     44                     45
                      A                      A                      A
 Frequencies --   1055.2962              1057.6437              1069.2998
 Red. masses --      1.8136                 2.9033                 1.9733
 Frc consts  --      1.1900                 1.9135                 1.3293
 IR Inten    --     18.5372                62.9837                12.8585

                     46                     47                     48
                      A                      A                      A
 Frequencies --   1110.8588              1134.8380              1166.0847
 Red. masses --      2.9416                 2.4961                 2.8863
 Frc consts  --      2.1387                 1.8940                 2.3123
 IR Inten    --     20.0838                91.2031               109.4345

                     49                     50                     51
                      A                      A                      A
 Frequencies --   1172.4563              1174.2292              1175.6561
 Red. masses --      1.2862                 1.4047                 1.3351
 Frc consts  --      1.0417                 1.1411                 1.0873
 IR Inten    --      1.0031                 3.2364                11.6028

                     52                     53                     54
                      A                      A                      A
 Frequencies --   1186.1126              1197.6635              1220.1080
 Red. masses --      3.2313                 1.7263                 1.6111
 Frc consts  --      2.6784                 1.4589                 1.4131
 IR Inten    --     90.0824               102.2333                25.7131

                     55                     56                     57
                      A                      A                      A
 Frequencies --   1221.9028              1246.4643              1281.3879
 Red. masses --      1.8731                 2.5350                 1.5356
 Frc consts  --      1.6477                 2.3206                 1.4856
 IR Inten    --     98.4429               190.6015                91.6247

                     58                     59                     60
                      A                      A                      A
 Frequencies --   1298.8782              1308.8215              1319.7325
 Red. masses --      1.5384                 1.6621                 1.2489
 Frc consts  --      1.5292                 1.6775                 1.2816
 IR Inten    --    176.7596                32.1735                 8.7795

                     61                     62                     63
                      A                      A                      A
 Frequencies --   1336.7435              1356.2755              1364.0343
 Red. masses --      1.5577                 1.3086                 1.6931
 Frc consts  --      1.6399                 1.4183                 1.8560
 IR Inten    --      0.7445                32.0383                 0.8076

                     64                     65                     66
                      A                      A                      A
 Frequencies --   1374.5425              1387.1282              1402.0216
 Red. masses --      1.2066                 1.4254                 1.2980
 Frc consts  --      1.3431                 1.6159                 1.5033
 IR Inten    --     41.5317                10.2657                 2.1662

                     67                     68                     69
                      A                      A                      A
 Frequencies --   1410.5677              1433.1164              1444.6841
 Red. masses --      1.2588                 2.3032                 1.0736
 Frc consts  --      1.4757                 2.7870                 1.3202
 IR Inten    --     13.3710                43.0978                32.5020

                     70                     71                     72
                      A                      A                      A
 Frequencies --   1455.7863              1472.0749              1473.4450
 Red. masses --      1.0901                 1.1142                 1.1313
 Frc consts  --      1.3612                 1.4226                 1.4471
 IR Inten    --     14.6139                 4.7079                 4.2058

                     73                     74                     75
                      A                      A                      A
 Frequencies --   1479.5585              1488.6820              1492.5673
 Red. masses --      1.2720                 1.0508                 1.0615
 Frc consts  --      1.6406                 1.3720                 1.3933
 IR Inten    --      8.6341                11.3235                11.6684

                     76                     77                     78
                      A                      A                      A
 Frequencies --   1492.8459              1493.4408              1495.8651
 Red. masses --      1.0416                 1.1068                 1.0449
 Frc consts  --      1.3676                 1.4544                 1.3776
 IR Inten    --     19.6859                 3.5261                24.4423

                     79                     80                     81
                      A                      A                      A
 Frequencies --   1497.1232              1504.3918              1557.8529
 Red. masses --      1.0543                 1.0450                 3.5432
 Frc consts  --      1.3923                 1.3934                 5.0663
 IR Inten    --      8.4363                 6.6041               234.8982

                     82                     83                     84
                      A                      A                      A
 Frequencies --   1640.9106              1718.5422              3009.9966
 Red. masses --      6.2151                 7.5061                 1.0822
 Frc consts  --      9.8598                13.0613                 5.7767
 IR Inten    --    264.8693                43.2696                 6.2207

                     85                     86                     87
                      A                      A                      A
 Frequencies --   3020.2613              3021.4381              3030.5788
 Red. masses --      1.0761                 1.0438                 1.0349
 Frc consts  --      5.7833                 5.6141                 5.6004
 IR Inten    --      5.9314                35.8063                28.6937

                     88                     89                     90
                      A                      A                      A
 Frequencies --   3036.3298              3056.8455              3069.1859
 Red. masses --      1.0332                 1.0591                 1.0408
 Frc consts  --      5.6124                 5.8310                 5.7762
 IR Inten    --     39.9604                22.1044                50.9631

                     91                     92                     93
                      A                      A                      A
 Frequencies --   3093.5716              3105.1041              3108.6355
 Red. masses --      1.1045                 1.1071                 1.1066
 Frc consts  --      6.2276                 6.2890                 6.3005
 IR Inten    --      7.9928                20.0476                75.6935

                     94                     95                     96
                      A                      A                      A
 Frequencies --   3113.2694              3116.0073              3145.7244
 Red. masses --      1.0786                 1.1054                 1.0883
 Frc consts  --      6.1594                 6.3238                 6.3452
 IR Inten    --   1171.3217                20.1862                 5.1571

                     97                     98                     99
                      A                      A                      A
 Frequencies --   3153.4164              3157.0739              3172.8551
 Red. masses --      1.0936                 1.1035                 1.1005
 Frc consts  --      6.4074                 6.4805                 6.5274
 IR Inten    --      8.6914                17.4881                 5.2730

                    100                    101                    102
                      A                      A                      A
 Frequencies --   3188.0851              3208.6650              3244.4321
 Red. masses --      1.1009                 1.1066                 1.0931
 Frc consts  --      6.5927                 6.7128                 6.7791
 IR Inten    --      3.0391                 2.2588                 9.4431

 - Thermochemistry -
 -------------------
 Temperature   298.150 Kelvin.  Pressure   1.00000 Atm.
 Atom     1 has atomic number  6 and mass  12.00000

 Molecular mass:   247.11816 amu.
 Principal axes and moments of inertia in atomic units:
                           1         2         3
     Eigenvalues --  2707.104404459.916055447.84836
           X            0.99999  -0.00287   0.00394
           Y            0.00296   0.99969  -0.02460
           Z           -0.00386   0.02461   0.99969
 This molecule is an asymmetric top.
 Rotational symmetry number  1.
 Warning -- assumption of classical behavior for rotation
           may cause significant error
 Rotational temperatures (Kelvin)      0.03200     0.01942     0.01590
 Rotational constants (GHZ):           0.66667     0.40466     0.33128
 Zero-point vibrational energy     799594.2 (Joules/Mol)
                                  191.10760 (Kcal/Mol)
 Warning -- explicit consideration of  28 degrees of freedom as
           vibrations may cause significant error
 Vibrational temperatures:     70.58    83.18   104.73   117.58   133.09
          (Kelvin)            147.66   156.40   170.92   192.17   247.07
                              261.93   285.50   287.99   339.38   349.07
                              357.20   381.64   436.78   463.06   513.40
                              523.65   538.28   615.18   655.86   713.51
                              751.01   818.74   878.03   922.98   982.33
                             1078.36  1112.72  1158.46  1170.69  1244.04
                             1260.37  1324.38  1350.58  1395.18  1433.26
                             1480.66  1491.82  1518.33  1521.71  1538.48
                             1598.28  1632.78  1677.73  1686.90  1689.45
                             1691.50  1706.55  1723.17  1755.46  1758.04
                             1793.38  1843.63  1868.79  1883.10  1898.80
                             1923.27  1951.38  1962.54  1977.66  1995.77
                             2017.19  2029.49  2061.93  2078.58  2094.55
                             2117.98  2119.96  2128.75  2141.88  2147.47
                             2147.87  2148.73  2152.21  2154.02  2164.48
                             2241.40  2360.90  2472.60  4330.71  4345.48
                             4347.17  4360.32  4368.60  4398.11  4415.87
                             4450.95  4467.55  4472.63  4479.29  4483.23
                             4525.99  4537.06  4542.32  4565.03  4586.94
                             4616.55  4668.01

 Zero-point correction=                           0.304549 (Hartree/Particle)
 Thermal correction to Energy=                    0.323016
 Thermal correction to Enthalpy=                  0.323960
 Thermal correction to Gibbs Free Energy=         0.258337
 Sum of electronic and zero-point Energies=           -880.609149
 Sum of electronic and thermal Energies=              -880.590683
 Sum of electronic and thermal Enthalpies=            -880.589739
 Sum of electronic and thermal Free Energies=         -880.655362

                     E (Thermal)             CV                S
                      KCal/Mol        Cal/Mol-Kelvin    Cal/Mol-Kelvin
 Total                  202.695             67.213            138.115
 Electronic               0.000              0.000              0.000
 Translational            0.889              2.981             42.415
 Rotational               0.889              2.981             32.553
 Vibrational            200.918             61.252             63.147
 Vibration     1          0.595              1.978              4.855
 Vibration     2          0.596              1.974              4.531
 Vibration     3          0.599              1.967              4.076
 Vibration     4          0.600              1.962              3.849
 Vibration     5          0.602              1.955              3.606
 Vibration     6          0.605              1.947              3.404
 Vibration     7          0.606              1.942              3.292
 Vibration     8          0.609              1.934              3.120
 Vibration     9          0.613              1.920              2.894
 Vibration    10          0.626              1.877              2.417
 Vibration    11          0.630              1.864              2.307
 Vibration    12          0.637              1.842              2.148
 Vibration    13          0.638              1.840              2.132
 Vibration    14          0.655              1.786              1.834
 Vibration    15          0.659              1.775              1.784
 Vibration    16          0.662              1.766              1.743
 Vibration    17          0.671              1.737              1.627
 Vibration    18          0.695              1.667              1.397
 Vibration    19          0.707              1.632              1.301
 Vibration    20          0.732              1.561              1.136
 Vibration    21          0.737              1.546              1.105
 Vibration    22          0.745              1.525              1.063
 Vibration    23          0.789              1.410              0.867
 Vibration    24          0.814              1.348              0.778
 Vibration    25          0.851              1.259              0.668
 Vibration    26          0.877              1.201              0.605
 Vibration    27          0.925              1.098              0.506
 Vibration    28          0.969              1.010              0.432

 Normal termination of Gaussian 09 at Tue Jan 10 07:27:20 2017.
